+ 2.417963 7 1 ack 40 ------- 0 7.0 6.0 0 33
- 2.417963 7 1 ack 40 ------- 0 7.0 6.0 0 33
r 2.436163 7 1 ack 40 ------- 0 7.0 6.0 0 33
+ 3.400363 7 1 ack 40 ------- 0 7.0 6.0 1 57
- 3.400363 7 1 ack 40 ------- 0 7.0 6.0 1 57
r 3.418563 7 1 ack 40 ------- 0 7.0 6.0 1 57
+ 3.646763 7 1 ack 40 ------- 0 7.0 6.0 2 63
- 3.646763 7 1 ack 40 ------- 0 7.0 6.0 2 63
r 3.664963 7 1 ack 40 ------- 0 7.0 6.0 2 63
+ 4.758763 7 1 ack 40 ------- 0 7.0 6.0 2 92
- 4.758763 7 1 ack 40 ------- 0 7.0 6.0 2 92
r 4.776963 7 1 ack 40 ------- 0 7.0 6.0 2 92
+ 4.881963 7 1 ack 40 ------- 0 7.0 6.0 2 94
- 4.881963 7 1 ack 40 ------- 0 7.0 6.0 2 94
r 4.900163 7 1 ack 40 ------- 0 7.0 6.0 2 94
+ 5.005163 7 1 ack 40 ------- 0 7.0 6.0 3 96
- 5.005163 7 1 ack 40 ------- 0 7.0 6.0 3 96
r 5.023363 7 1 ack 40 ------- 0 7.0 6.0 3 96
+ 5.128363 7 1 ack 40 ------- 0 7.0 6.0 4 97
- 5.128363 7 1 ack 40 ------- 0 7.0 6.0 4 97
r 5.146563 7 1 ack 40 ------- 0 7.0 6.0 4 97
+ 8.464363 7 1 ack 40 ------- 0 7.0 6.0 5 170
- 8.464363 7 1 ack 40 ------- 0 7.0 6.0 5 170
r 8.482563 7 1 ack 40 ------- 0 7.0 6.0 5 170
+ 9.825963 7 1 ack 40 ------- 0 7.0 6.0 6 208
- 9.825963 7 1 ack 40 ------- 0 7.0 6.0 6 208
r 9.844163 7 1 ack 40 ------- 0 7.0 6.0 6 208
+ 9.949163 7 1 ack 40 ------- 0 7.0 6.0 7 210
- 9.949163 7 1 ack 40 ------- 0 7.0 6.0 7 210
r 9.967363 7 1 ack 40 ------- 0 7.0 6.0 7 210
+ 11.307563 7 1 ack 40 ------- 0 7.0 6.0 7 234
- 11.307563 7 1 ack 40 ------- 0 7.0 6.0 7 234
r 11.325763 7 1 ack 40 ------- 0 7.0 6.0 7 234
+ 12.785963 7 1 ack 40 ------- 0 7.0 6.0 7 262
- 12.785963 7 1 ack 40 ------- 0 7.0 6.0 7 262
r 12.804163 7 1 ack 40 ------- 0 7.0 6.0 7 262
