+ 9.459563 19 1 ack 40 ------- 0 19.0 18.0 0 198
- 9.459563 19 1 ack 40 ------- 0 19.0 18.0 0 198
r 9.477763 19 1 ack 40 ------- 0 19.0 18.0 0 198
+ 14.264363 19 1 ack 40 ------- 0 19.0 18.0 1 291
- 14.264363 19 1 ack 40 ------- 0 19.0 18.0 1 291
r 14.282563 19 1 ack 40 ------- 0 19.0 18.0 1 291
