+ 6.736363 13 1 ack 40 ------- 0 13.0 12.0 0 120
- 6.736363 13 1 ack 40 ------- 0 13.0 12.0 0 120
r 6.754563 13 1 ack 40 ------- 0 13.0 12.0 0 120
+ 7.352363 13 1 ack 40 ------- 0 13.0 12.0 1 134
- 7.352363 13 1 ack 40 ------- 0 13.0 12.0 1 134
r 7.370563 13 1 ack 40 ------- 0 13.0 12.0 1 134
+ 7.475563 13 1 ack 40 ------- 0 13.0 12.0 2 139
- 7.475563 13 1 ack 40 ------- 0 13.0 12.0 2 139
r 7.493763 13 1 ack 40 ------- 0 13.0 12.0 2 139
+ 8.341163 13 1 ack 40 ------- 0 13.0 12.0 3 166
- 8.341163 13 1 ack 40 ------- 0 13.0 12.0 3 166
r 8.359363 13 1 ack 40 ------- 0 13.0 12.0 3 166
+ 8.710763 13 1 ack 40 ------- 0 13.0 12.0 4 178
- 8.710763 13 1 ack 40 ------- 0 13.0 12.0 4 178
r 8.728963 13 1 ack 40 ------- 0 13.0 12.0 4 178
+ 8.837163 13 1 ack 40 ------- 0 13.0 12.0 5 181
- 8.837163 13 1 ack 40 ------- 0 13.0 12.0 5 181
r 8.855363 13 1 ack 40 ------- 0 13.0 12.0 5 181
+ 8.960363 13 1 ack 40 ------- 0 13.0 12.0 6 184
- 8.960363 13 1 ack 40 ------- 0 13.0 12.0 6 184
r 8.978563 13 1 ack 40 ------- 0 13.0 12.0 6 184
+ 9.702763 13 1 ack 40 ------- 0 13.0 12.0 6 205
- 9.702763 13 1 ack 40 ------- 0 13.0 12.0 6 205
r 9.720963 13 1 ack 40 ------- 0 13.0 12.0 6 205
+ 10.195563 13 1 ack 40 ------- 0 13.0 12.0 6 217
- 10.195563 13 1 ack 40 ------- 0 13.0 12.0 6 217
r 10.213763 13 1 ack 40 ------- 0 13.0 12.0 6 217
+ 10.321963 13 1 ack 40 ------- 0 13.0 12.0 6 219
- 10.321963 13 1 ack 40 ------- 0 13.0 12.0 6 219
r 10.340163 13 1 ack 40 ------- 0 13.0 12.0 6 219
+ 10.445163 13 1 ack 40 ------- 0 13.0 12.0 6 221
- 10.445163 13 1 ack 40 ------- 0 13.0 12.0 6 221
r 10.463363 13 1 ack 40 ------- 0 13.0 12.0 6 221
+ 10.568363 13 1 ack 40 ------- 0 13.0 12.0 6 222
- 10.568363 13 1 ack 40 ------- 0 13.0 12.0 6 222
r 10.586563 13 1 ack 40 ------- 0 13.0 12.0 6 222
+ 11.677163 13 1 ack 40 ------- 0 13.0 12.0 6 242
- 11.677163 13 1 ack 40 ------- 0 13.0 12.0 6 242
r 11.695363 13 1 ack 40 ------- 0 13.0 12.0 6 242
+ 11.800363 13 1 ack 40 ------- 0 13.0 12.0 8 243
- 11.800363 13 1 ack 40 ------- 0 13.0 12.0 8 243
r 11.818563 13 1 ack 40 ------- 0 13.0 12.0 8 243
+ 13.278763 13 1 ack 40 ------- 0 13.0 12.0 10 269
- 13.278763 13 1 ack 40 ------- 0 13.0 12.0 10 269
r 13.296963 13 1 ack 40 ------- 0 13.0 12.0 10 269
+ 14.633963 13 1 ack 40 ------- 0 13.0 12.0 14 298
- 14.633963 13 1 ack 40 ------- 0 13.0 12.0 14 298
r 14.652163 13 1 ack 40 ------- 0 13.0 12.0 14 298
+ 14.757163 13 1 ack 40 ------- 0 13.0 12.0 14 304
- 14.757163 13 1 ack 40 ------- 0 13.0 12.0 14 304
r 14.775363 13 1 ack 40 ------- 0 13.0 12.0 14 304
+ 15.003563 13 1 ack 40 ------- 0 13.0 12.0 14 309
- 15.003563 13 1 ack 40 ------- 0 13.0 12.0 14 309
r 15.021763 13 1 ack 40 ------- 0 13.0 12.0 14 309
+ 16.112363 13 1 ack 40 ------- 0 13.0 12.0 16 331
- 16.112363 13 1 ack 40 ------- 0 13.0 12.0 16 331
r 16.130563 13 1 ack 40 ------- 0 13.0 12.0 16 331
+ 16.235563 13 1 ack 40 ------- 0 13.0 12.0 16 332
- 16.235563 13 1 ack 40 ------- 0 13.0 12.0 16 332
r 16.253763 13 1 ack 40 ------- 0 13.0 12.0 16 332
+ 16.481963 13 1 ack 40 ------- 0 13.0 12.0 16 337
- 16.481963 13 1 ack 40 ------- 0 13.0 12.0 16 337
r 16.500163 13 1 ack 40 ------- 0 13.0 12.0 16 337
+ 16.605163 13 1 ack 40 ------- 0 13.0 12.0 16 339
- 16.605163 13 1 ack 40 ------- 0 13.0 12.0 16 339
r 16.623363 13 1 ack 40 ------- 0 13.0 12.0 16 339
+ 16.728363 13 1 ack 40 ------- 0 13.0 12.0 16 340
- 16.728363 13 1 ack 40 ------- 0 13.0 12.0 16 340
r 16.746563 13 1 ack 40 ------- 0 13.0 12.0 16 340
+ 17.713963 13 1 ack 40 ------- 0 13.0 12.0 16 356
- 17.713963 13 1 ack 40 ------- 0 13.0 12.0 16 356
r 17.732163 13 1 ack 40 ------- 0 13.0 12.0 16 356
