+ 8.593963 11 1 ack 40 ------- 0 11.0 10.0 0 174
- 8.593963 11 1 ack 40 ------- 0 11.0 10.0 0 174
r 8.612163 11 1 ack 40 ------- 0 11.0 10.0 0 174
+ 15.989163 11 1 ack 40 ------- 0 11.0 10.0 1 328
- 15.989163 11 1 ack 40 ------- 0 11.0 10.0 1 328
r 16.007363 11 1 ack 40 ------- 0 11.0 10.0 1 328
