+ 7.974763 17 1 ack 40 ------- 0 17.0 16.0 0 156
- 7.974763 17 1 ack 40 ------- 0 17.0 16.0 0 156
r 7.992963 17 1 ack 40 ------- 0 17.0 16.0 0 156
+ 11.061163 17 1 ack 40 ------- 0 17.0 16.0 1 229
- 11.061163 17 1 ack 40 ------- 0 17.0 16.0 1 229
r 11.079363 17 1 ack 40 ------- 0 17.0 16.0 1 229
+ 12.293163 17 1 ack 40 ------- 0 17.0 16.0 2 251
- 12.293163 17 1 ack 40 ------- 0 17.0 16.0 2 251
r 12.311363 17 1 ack 40 ------- 0 17.0 16.0 2 251
+ 12.416363 17 1 ack 40 ------- 0 17.0 16.0 3 253
- 12.416363 17 1 ack 40 ------- 0 17.0 16.0 3 253
r 12.434563 17 1 ack 40 ------- 0 17.0 16.0 3 253
+ 13.648363 17 1 ack 40 ------- 0 17.0 16.0 4 277
- 13.648363 17 1 ack 40 ------- 0 17.0 16.0 4 277
r 13.666563 17 1 ack 40 ------- 0 17.0 16.0 4 277
+ 13.771563 17 1 ack 40 ------- 0 17.0 16.0 5 280
- 13.771563 17 1 ack 40 ------- 0 17.0 16.0 5 280
r 13.789763 17 1 ack 40 ------- 0 17.0 16.0 5 280
+ 15.126763 17 1 ack 40 ------- 0 17.0 16.0 6 311
- 15.126763 17 1 ack 40 ------- 0 17.0 16.0 6 311
r 15.144963 17 1 ack 40 ------- 0 17.0 16.0 6 311
+ 15.249963 17 1 ack 40 ------- 0 17.0 16.0 7 313
- 15.249963 17 1 ack 40 ------- 0 17.0 16.0 7 313
r 15.268163 17 1 ack 40 ------- 0 17.0 16.0 7 313
+ 15.373163 17 1 ack 40 ------- 0 17.0 16.0 8 316
- 15.373163 17 1 ack 40 ------- 0 17.0 16.0 8 316
r 15.391363 17 1 ack 40 ------- 0 17.0 16.0 8 316
+ 16.851563 17 1 ack 40 ------- 0 17.0 16.0 8 342
- 16.851563 17 1 ack 40 ------- 0 17.0 16.0 8 342
r 16.869763 17 1 ack 40 ------- 0 17.0 16.0 8 342
+ 16.974763 17 1 ack 40 ------- 0 17.0 16.0 8 344
- 16.974763 17 1 ack 40 ------- 0 17.0 16.0 8 344
r 16.992963 17 1 ack 40 ------- 0 17.0 16.0 8 344
+ 18.206763 17 1 ack 40 ------- 0 17.0 16.0 8 364
- 18.206763 17 1 ack 40 ------- 0 17.0 16.0 8 364
r 18.224963 17 1 ack 40 ------- 0 17.0 16.0 8 364
+ 18.329963 17 1 ack 40 ------- 0 17.0 16.0 8 366
- 18.329963 17 1 ack 40 ------- 0 17.0 16.0 8 366
r 18.348163 17 1 ack 40 ------- 0 17.0 16.0 8 366
+ 19.561963 17 1 ack 40 ------- 0 17.0 16.0 9 389
- 19.561963 17 1 ack 40 ------- 0 17.0 16.0 9 389
r 19.580163 17 1 ack 40 ------- 0 17.0 16.0 9 389
