+ 4.269163 9 1 ack 40 ------- 0 9.0 8.0 0 78
- 4.269163 9 1 ack 40 ------- 0 9.0 8.0 0 78
r 4.287363 9 1 ack 40 ------- 0 9.0 8.0 0 78
+ 8.587563 9 1 ack 40 ------- 0 9.0 8.0 1 173
- 8.587563 9 1 ack 40 ------- 0 9.0 8.0 1 173
r 8.605763 9 1 ack 40 ------- 0 9.0 8.0 1 173
+ 10.072363 9 1 ack 40 ------- 0 9.0 8.0 1 212
- 10.072363 9 1 ack 40 ------- 0 9.0 8.0 1 212
r 10.090563 9 1 ack 40 ------- 0 9.0 8.0 1 212
+ 11.430763 9 1 ack 40 ------- 0 9.0 8.0 1 237
- 11.430763 9 1 ack 40 ------- 0 9.0 8.0 1 237
r 11.448963 9 1 ack 40 ------- 0 9.0 8.0 1 237
+ 12.909163 9 1 ack 40 ------- 0 9.0 8.0 1 264
- 12.909163 9 1 ack 40 ------- 0 9.0 8.0 1 264
r 12.927363 9 1 ack 40 ------- 0 9.0 8.0 1 264
+ 16.358763 9 1 ack 40 ------- 0 9.0 8.0 5 334
- 16.358763 9 1 ack 40 ------- 0 9.0 8.0 5 334
r 16.376963 9 1 ack 40 ------- 0 9.0 8.0 5 334
+ 17.837163 9 1 ack 40 ------- 0 9.0 8.0 6 357
- 17.837163 9 1 ack 40 ------- 0 9.0 8.0 6 357
r 17.855363 9 1 ack 40 ------- 0 9.0 8.0 6 357
+ 17.960363 9 1 ack 40 ------- 0 9.0 8.0 7 359
- 17.960363 9 1 ack 40 ------- 0 9.0 8.0 7 359
r 17.978563 9 1 ack 40 ------- 0 9.0 8.0 7 359
+ 19.069163 9 1 ack 40 ------- 0 9.0 8.0 8 379
- 19.069163 9 1 ack 40 ------- 0 9.0 8.0 8 379
r 19.087363 9 1 ack 40 ------- 0 9.0 8.0 8 379
+ 19.192363 9 1 ack 40 ------- 0 9.0 8.0 9 382
- 19.192363 9 1 ack 40 ------- 0 9.0 8.0 9 382
r 19.210563 9 1 ack 40 ------- 0 9.0 8.0 9 382
