+ 1.552363 5 1 ack 40 ------- 0 5.0 4.0 0 14
- 1.552363 5 1 ack 40 ------- 0 5.0 4.0 0 14
r 1.570563 5 1 ack 40 ------- 0 5.0 4.0 0 14
+ 2.041963 5 1 ack 40 ------- 0 5.0 4.0 1 23
- 2.041963 5 1 ack 40 ------- 0 5.0 4.0 1 23
r 2.060163 5 1 ack 40 ------- 0 5.0 4.0 1 23
+ 2.288363 5 1 ack 40 ------- 0 5.0 4.0 2 29
- 2.288363 5 1 ack 40 ------- 0 5.0 4.0 2 29
r 2.306563 5 1 ack 40 ------- 0 5.0 4.0 2 29
+ 2.661163 5 1 ack 40 ------- 0 5.0 4.0 3 40
- 2.661163 5 1 ack 40 ------- 0 5.0 4.0 3 40
r 2.679363 5 1 ack 40 ------- 0 5.0 4.0 3 40
+ 2.784363 5 1 ack 40 ------- 0 5.0 4.0 4 43
- 2.784363 5 1 ack 40 ------- 0 5.0 4.0 4 43
r 2.802563 5 1 ack 40 ------- 0 5.0 4.0 4 43
+ 3.030763 5 1 ack 40 ------- 0 5.0 4.0 5 48
- 3.030763 5 1 ack 40 ------- 0 5.0 4.0 5 48
r 3.048963 5 1 ack 40 ------- 0 5.0 4.0 5 48
+ 3.277163 5 1 ack 40 ------- 0 5.0 4.0 6 53
- 3.277163 5 1 ack 40 ------- 0 5.0 4.0 6 53
r 3.295363 5 1 ack 40 ------- 0 5.0 4.0 6 53
+ 3.893163 5 1 ack 40 ------- 0 5.0 4.0 7 68
- 3.893163 5 1 ack 40 ------- 0 5.0 4.0 7 68
r 3.911363 5 1 ack 40 ------- 0 5.0 4.0 7 68
+ 4.016363 5 1 ack 40 ------- 0 5.0 4.0 8 71
- 4.016363 5 1 ack 40 ------- 0 5.0 4.0 8 71
r 4.034563 5 1 ack 40 ------- 0 5.0 4.0 8 71
+ 4.139563 5 1 ack 40 ------- 0 5.0 4.0 9 74
- 4.139563 5 1 ack 40 ------- 0 5.0 4.0 9 74
r 4.157763 5 1 ack 40 ------- 0 5.0 4.0 9 74
+ 4.385963 5 1 ack 40 ------- 0 5.0 4.0 10 82
- 4.385963 5 1 ack 40 ------- 0 5.0 4.0 10 82
r 4.404163 5 1 ack 40 ------- 0 5.0 4.0 10 82
+ 4.512363 5 1 ack 40 ------- 0 5.0 4.0 11 85
- 4.512363 5 1 ack 40 ------- 0 5.0 4.0 11 85
r 4.530563 5 1 ack 40 ------- 0 5.0 4.0 11 85
+ 4.635563 5 1 ack 40 ------- 0 5.0 4.0 12 88
- 4.635563 5 1 ack 40 ------- 0 5.0 4.0 12 88
r 4.653763 5 1 ack 40 ------- 0 5.0 4.0 12 88
+ 5.374763 5 1 ack 40 ------- 0 5.0 4.0 12 101
- 5.374763 5 1 ack 40 ------- 0 5.0 4.0 12 101
r 5.392963 5 1 ack 40 ------- 0 5.0 4.0 12 101
+ 5.497963 5 1 ack 40 ------- 0 5.0 4.0 12 103
- 5.497963 5 1 ack 40 ------- 0 5.0 4.0 12 103
r 5.516163 5 1 ack 40 ------- 0 5.0 4.0 12 103
+ 5.621163 5 1 ack 40 ------- 0 5.0 4.0 12 106
- 5.621163 5 1 ack 40 ------- 0 5.0 4.0 12 106
r 5.639363 5 1 ack 40 ------- 0 5.0 4.0 12 106
+ 5.867563 5 1 ack 40 ------- 0 5.0 4.0 12 111
- 5.867563 5 1 ack 40 ------- 0 5.0 4.0 12 111
r 5.885763 5 1 ack 40 ------- 0 5.0 4.0 12 111
+ 5.990763 5 1 ack 40 ------- 0 5.0 4.0 12 112
- 5.990763 5 1 ack 40 ------- 0 5.0 4.0 12 112
r 6.008963 5 1 ack 40 ------- 0 5.0 4.0 12 112
+ 6.113963 5 1 ack 40 ------- 0 5.0 4.0 12 113
- 6.113963 5 1 ack 40 ------- 0 5.0 4.0 12 113
r 6.132163 5 1 ack 40 ------- 0 5.0 4.0 12 113
+ 6.237163 5 1 ack 40 ------- 0 5.0 4.0 12 115
- 6.237163 5 1 ack 40 ------- 0 5.0 4.0 12 115
r 6.255363 5 1 ack 40 ------- 0 5.0 4.0 12 115
+ 6.360363 5 1 ack 40 ------- 0 5.0 4.0 12 116
- 6.360363 5 1 ack 40 ------- 0 5.0 4.0 12 116
r 6.378563 5 1 ack 40 ------- 0 5.0 4.0 12 116
+ 6.483563 5 1 ack 40 ------- 0 5.0 4.0 12 117
- 6.483563 5 1 ack 40 ------- 0 5.0 4.0 12 117
r 6.501763 5 1 ack 40 ------- 0 5.0 4.0 12 117
+ 6.606763 5 1 ack 40 ------- 0 5.0 4.0 12 118
- 6.606763 5 1 ack 40 ------- 0 5.0 4.0 12 118
r 6.624963 5 1 ack 40 ------- 0 5.0 4.0 12 118
+ 6.729963 5 1 ack 40 ------- 0 5.0 4.0 12 119
- 6.729963 5 1 ack 40 ------- 0 5.0 4.0 12 119
r 6.748163 5 1 ack 40 ------- 0 5.0 4.0 12 119
+ 6.853163 5 1 ack 40 ------- 0 5.0 4.0 12 123
- 6.853163 5 1 ack 40 ------- 0 5.0 4.0 12 123
r 6.871363 5 1 ack 40 ------- 0 5.0 4.0 12 123
+ 6.979563 5 1 ack 40 ------- 0 5.0 4.0 13 124
- 6.979563 5 1 ack 40 ------- 0 5.0 4.0 13 124
r 6.997763 5 1 ack 40 ------- 0 5.0 4.0 13 124
+ 7.598763 5 1 ack 40 ------- 0 5.0 4.0 14 143
- 7.598763 5 1 ack 40 ------- 0 5.0 4.0 14 143
r 7.616963 5 1 ack 40 ------- 0 5.0 4.0 14 143
+ 7.721963 5 1 ack 40 ------- 0 5.0 4.0 27 147
- 7.721963 5 1 ack 40 ------- 0 5.0 4.0 27 147
r 7.740163 5 1 ack 40 ------- 0 5.0 4.0 27 147
+ 9.083563 5 1 ack 40 ------- 0 5.0 4.0 28 188
- 9.083563 5 1 ack 40 ------- 0 5.0 4.0 28 188
r 9.101763 5 1 ack 40 ------- 0 5.0 4.0 28 188
+ 9.329963 5 1 ack 40 ------- 0 5.0 4.0 29 194
- 9.329963 5 1 ack 40 ------- 0 5.0 4.0 29 194
r 9.348163 5 1 ack 40 ------- 0 5.0 4.0 29 194
+ 9.453163 5 1 ack 40 ------- 0 5.0 4.0 30 197
- 9.453163 5 1 ack 40 ------- 0 5.0 4.0 30 197
r 9.471363 5 1 ack 40 ------- 0 5.0 4.0 30 197
+ 9.576363 5 1 ack 40 ------- 0 5.0 4.0 31 203
- 9.576363 5 1 ack 40 ------- 0 5.0 4.0 31 203
r 9.594563 5 1 ack 40 ------- 0 5.0 4.0 31 203
+ 10.814763 5 1 ack 40 ------- 0 5.0 4.0 31 225
- 10.814763 5 1 ack 40 ------- 0 5.0 4.0 31 225
r 10.832963 5 1 ack 40 ------- 0 5.0 4.0 31 225
+ 10.937963 5 1 ack 40 ------- 0 5.0 4.0 31 227
- 10.937963 5 1 ack 40 ------- 0 5.0 4.0 31 227
r 10.956163 5 1 ack 40 ------- 0 5.0 4.0 31 227
+ 11.184363 5 1 ack 40 ------- 0 5.0 4.0 31 232
- 11.184363 5 1 ack 40 ------- 0 5.0 4.0 31 232
r 11.202563 5 1 ack 40 ------- 0 5.0 4.0 31 232
+ 12.046763 5 1 ack 40 ------- 0 5.0 4.0 31 249
- 12.046763 5 1 ack 40 ------- 0 5.0 4.0 31 249
r 12.064963 5 1 ack 40 ------- 0 5.0 4.0 31 249
+ 12.169963 5 1 ack 40 ------- 0 5.0 4.0 31 250
- 12.169963 5 1 ack 40 ------- 0 5.0 4.0 31 250
r 12.188163 5 1 ack 40 ------- 0 5.0 4.0 31 250
+ 12.539563 5 1 ack 40 ------- 0 5.0 4.0 32 255
- 12.539563 5 1 ack 40 ------- 0 5.0 4.0 32 255
r 12.557763 5 1 ack 40 ------- 0 5.0 4.0 32 255
+ 13.894763 5 1 ack 40 ------- 0 5.0 4.0 33 282
- 13.894763 5 1 ack 40 ------- 0 5.0 4.0 33 282
r 13.912963 5 1 ack 40 ------- 0 5.0 4.0 33 282
+ 14.017963 5 1 ack 40 ------- 0 5.0 4.0 36 285
- 14.017963 5 1 ack 40 ------- 0 5.0 4.0 36 285
r 14.036163 5 1 ack 40 ------- 0 5.0 4.0 36 285
+ 15.496363 5 1 ack 40 ------- 0 5.0 4.0 36 318
- 15.496363 5 1 ack 40 ------- 0 5.0 4.0 36 318
r 15.514563 5 1 ack 40 ------- 0 5.0 4.0 36 318
+ 15.619563 5 1 ack 40 ------- 0 5.0 4.0 40 320
- 15.619563 5 1 ack 40 ------- 0 5.0 4.0 40 320
r 15.637763 5 1 ack 40 ------- 0 5.0 4.0 40 320
+ 15.742763 5 1 ack 40 ------- 0 5.0 4.0 40 324
- 15.742763 5 1 ack 40 ------- 0 5.0 4.0 40 324
r 15.760963 5 1 ack 40 ------- 0 5.0 4.0 40 324
+ 15.865963 5 1 ack 40 ------- 0 5.0 4.0 40 326
- 15.865963 5 1 ack 40 ------- 0 5.0 4.0 40 326
r 15.884163 5 1 ack 40 ------- 0 5.0 4.0 40 326
+ 17.097963 5 1 ack 40 ------- 0 5.0 4.0 41 346
- 17.097963 5 1 ack 40 ------- 0 5.0 4.0 41 346
r 17.116163 5 1 ack 40 ------- 0 5.0 4.0 41 346
+ 17.221163 5 1 ack 40 ------- 0 5.0 4.0 42 347
- 17.221163 5 1 ack 40 ------- 0 5.0 4.0 42 347
r 17.239363 5 1 ack 40 ------- 0 5.0 4.0 42 347
+ 17.344363 5 1 ack 40 ------- 0 5.0 4.0 43 349
- 17.344363 5 1 ack 40 ------- 0 5.0 4.0 43 349
r 17.362563 5 1 ack 40 ------- 0 5.0 4.0 43 349
+ 17.467563 5 1 ack 40 ------- 0 5.0 4.0 44 351
- 17.467563 5 1 ack 40 ------- 0 5.0 4.0 44 351
r 17.485763 5 1 ack 40 ------- 0 5.0 4.0 44 351
+ 17.590763 5 1 ack 40 ------- 0 5.0 4.0 45 354
- 17.590763 5 1 ack 40 ------- 0 5.0 4.0 45 354
r 17.608963 5 1 ack 40 ------- 0 5.0 4.0 45 354
+ 18.453163 5 1 ack 40 ------- 0 5.0 4.0 46 367
- 18.453163 5 1 ack 40 ------- 0 5.0 4.0 46 367
r 18.471363 5 1 ack 40 ------- 0 5.0 4.0 46 367
+ 18.576363 5 1 ack 40 ------- 0 5.0 4.0 47 370
- 18.576363 5 1 ack 40 ------- 0 5.0 4.0 47 370
r 18.594563 5 1 ack 40 ------- 0 5.0 4.0 47 370
+ 18.699563 5 1 ack 40 ------- 0 5.0 4.0 48 372
- 18.699563 5 1 ack 40 ------- 0 5.0 4.0 48 372
r 18.717763 5 1 ack 40 ------- 0 5.0 4.0 48 372
+ 18.945963 5 1 ack 40 ------- 0 5.0 4.0 49 377
- 18.945963 5 1 ack 40 ------- 0 5.0 4.0 49 377
r 18.964163 5 1 ack 40 ------- 0 5.0 4.0 49 377
+ 19.685163 5 1 ack 40 ------- 0 5.0 4.0 50 392
- 19.685163 5 1 ack 40 ------- 0 5.0 4.0 50 392
r 19.703363 5 1 ack 40 ------- 0 5.0 4.0 50 392
+ 19.808363 5 1 ack 40 ------- 0 5.0 4.0 51 394
- 19.808363 5 1 ack 40 ------- 0 5.0 4.0 51 394
r 19.826563 5 1 ack 40 ------- 0 5.0 4.0 51 394
+ 19.931563 5 1 ack 40 ------- 0 5.0 4.0 52 396
- 19.931563 5 1 ack 40 ------- 0 5.0 4.0 52 396
r 19.949763 5 1 ack 40 ------- 0 5.0 4.0 52 396
