+ 10.078763 21 1 ack 40 ------- 0 21.0 20.0 0 213
- 10.078763 21 1 ack 40 ------- 0 21.0 20.0 0 213
r 10.096963 21 1 ack 40 ------- 0 21.0 20.0 0 213
+ 11.553963 21 1 ack 40 ------- 0 21.0 20.0 1 239
- 11.553963 21 1 ack 40 ------- 0 21.0 20.0 1 239
r 11.572163 21 1 ack 40 ------- 0 21.0 20.0 1 239
+ 13.032363 21 1 ack 40 ------- 0 21.0 20.0 1 265
- 13.032363 21 1 ack 40 ------- 0 21.0 20.0 1 265
r 13.050563 21 1 ack 40 ------- 0 21.0 20.0 1 265
+ 13.155563 21 1 ack 40 ------- 0 21.0 20.0 1 267
- 13.155563 21 1 ack 40 ------- 0 21.0 20.0 1 267
r 13.173763 21 1 ack 40 ------- 0 21.0 20.0 1 267
+ 14.387563 21 1 ack 40 ------- 0 21.0 20.0 1 294
- 14.387563 21 1 ack 40 ------- 0 21.0 20.0 1 294
r 14.405763 21 1 ack 40 ------- 0 21.0 20.0 1 294
+ 14.510763 21 1 ack 40 ------- 0 21.0 20.0 1 297
- 14.510763 21 1 ack 40 ------- 0 21.0 20.0 1 297
r 14.528963 21 1 ack 40 ------- 0 21.0 20.0 1 297
+ 18.822763 21 1 ack 40 ------- 0 21.0 20.0 6 374
- 18.822763 21 1 ack 40 ------- 0 21.0 20.0 6 374
r 18.840963 21 1 ack 40 ------- 0 21.0 20.0 6 374
