+ 0.607563 3 1 ack 40 ------- 0 3.0 2.0 0 1
- 0.607563 3 1 ack 40 ------- 0 3.0 2.0 0 1
r 0.625763 3 1 ack 40 ------- 0 3.0 2.0 0 1
+ 1.076763 3 1 ack 40 ------- 0 3.0 2.0 1 5
- 1.076763 3 1 ack 40 ------- 0 3.0 2.0 1 5
r 1.094963 3 1 ack 40 ------- 0 3.0 2.0 1 5
+ 1.199963 3 1 ack 40 ------- 0 3.0 2.0 2 8
- 1.199963 3 1 ack 40 ------- 0 3.0 2.0 2 8
r 1.218163 3 1 ack 40 ------- 0 3.0 2.0 2 8
+ 1.406763 3 1 ack 40 ------- 0 3.0 2.0 2 10
- 1.406763 3 1 ack 40 ------- 0 3.0 2.0 2 10
r 1.424963 3 1 ack 40 ------- 0 3.0 2.0 2 10
+ 1.545963 3 1 ack 40 ------- 0 3.0 2.0 2 13
- 1.545963 3 1 ack 40 ------- 0 3.0 2.0 2 13
r 1.564163 3 1 ack 40 ------- 0 3.0 2.0 2 13
+ 1.669163 3 1 ack 40 ------- 0 3.0 2.0 3 18
- 1.669163 3 1 ack 40 ------- 0 3.0 2.0 3 18
r 1.687363 3 1 ack 40 ------- 0 3.0 2.0 3 18
+ 1.795563 3 1 ack 40 ------- 0 3.0 2.0 4 19
- 1.795563 3 1 ack 40 ------- 0 3.0 2.0 4 19
r 1.813763 3 1 ack 40 ------- 0 3.0 2.0 4 19
+ 1.918763 3 1 ack 40 ------- 0 3.0 2.0 5 21
- 1.918763 3 1 ack 40 ------- 0 3.0 2.0 5 21
r 1.936963 3 1 ack 40 ------- 0 3.0 2.0 5 21
+ 2.165163 3 1 ack 40 ------- 0 3.0 2.0 6 27
- 2.165163 3 1 ack 40 ------- 0 3.0 2.0 6 27
r 2.183363 3 1 ack 40 ------- 0 3.0 2.0 6 27
+ 2.411563 3 1 ack 40 ------- 0 3.0 2.0 7 32
- 2.411563 3 1 ack 40 ------- 0 3.0 2.0 7 32
r 2.429763 3 1 ack 40 ------- 0 3.0 2.0 7 32
+ 2.534763 3 1 ack 40 ------- 0 3.0 2.0 8 38
- 2.534763 3 1 ack 40 ------- 0 3.0 2.0 8 38
r 2.552963 3 1 ack 40 ------- 0 3.0 2.0 8 38
+ 2.907563 3 1 ack 40 ------- 0 3.0 2.0 9 46
- 2.907563 3 1 ack 40 ------- 0 3.0 2.0 9 46
r 2.925763 3 1 ack 40 ------- 0 3.0 2.0 9 46
+ 3.153963 3 1 ack 40 ------- 0 3.0 2.0 10 51
- 3.153963 3 1 ack 40 ------- 0 3.0 2.0 10 51
r 3.172163 3 1 ack 40 ------- 0 3.0 2.0 10 51
+ 3.523563 3 1 ack 40 ------- 0 3.0 2.0 11 61
- 3.523563 3 1 ack 40 ------- 0 3.0 2.0 11 61
r 3.541763 3 1 ack 40 ------- 0 3.0 2.0 11 61
+ 3.769963 3 1 ack 40 ------- 0 3.0 2.0 12 65
- 3.769963 3 1 ack 40 ------- 0 3.0 2.0 12 65
r 3.788163 3 1 ack 40 ------- 0 3.0 2.0 12 65
+ 4.262763 3 1 ack 40 ------- 0 3.0 2.0 13 77
- 4.262763 3 1 ack 40 ------- 0 3.0 2.0 13 77
r 4.280963 3 1 ack 40 ------- 0 3.0 2.0 13 77
+ 5.251563 3 1 ack 40 ------- 0 3.0 2.0 13 99
- 5.251563 3 1 ack 40 ------- 0 3.0 2.0 13 99
r 5.269763 3 1 ack 40 ------- 0 3.0 2.0 13 99
+ 5.744363 3 1 ack 40 ------- 0 3.0 2.0 13 108
- 5.744363 3 1 ack 40 ------- 0 3.0 2.0 13 108
r 5.762563 3 1 ack 40 ------- 0 3.0 2.0 13 108
+ 7.102763 3 1 ack 40 ------- 0 3.0 2.0 13 127
- 7.102763 3 1 ack 40 ------- 0 3.0 2.0 13 127
r 7.120963 3 1 ack 40 ------- 0 3.0 2.0 13 127
+ 7.225963 3 1 ack 40 ------- 0 3.0 2.0 14 131
- 7.225963 3 1 ack 40 ------- 0 3.0 2.0 14 131
r 7.244163 3 1 ack 40 ------- 0 3.0 2.0 14 131
+ 7.968363 3 1 ack 40 ------- 0 3.0 2.0 15 155
- 7.968363 3 1 ack 40 ------- 0 3.0 2.0 15 155
r 7.986563 3 1 ack 40 ------- 0 3.0 2.0 15 155
+ 8.217963 3 1 ack 40 ------- 0 3.0 2.0 18 163
- 8.217963 3 1 ack 40 ------- 0 3.0 2.0 18 163
r 8.236163 3 1 ack 40 ------- 0 3.0 2.0 18 163
+ 12.662763 3 1 ack 40 ------- 0 3.0 2.0 20 258
- 12.662763 3 1 ack 40 ------- 0 3.0 2.0 20 258
r 12.680963 3 1 ack 40 ------- 0 3.0 2.0 20 258
+ 14.141163 3 1 ack 40 ------- 0 3.0 2.0 21 289
- 14.141163 3 1 ack 40 ------- 0 3.0 2.0 21 289
r 14.159363 3 1 ack 40 ------- 0 3.0 2.0 21 289
+ 18.083563 3 1 ack 40 ------- 0 3.0 2.0 22 361
- 18.083563 3 1 ack 40 ------- 0 3.0 2.0 22 361
r 18.101763 3 1 ack 40 ------- 0 3.0 2.0 22 361
+ 19.315563 3 1 ack 40 ------- 0 3.0 2.0 23 385
- 19.315563 3 1 ack 40 ------- 0 3.0 2.0 23 385
r 19.333763 3 1 ack 40 ------- 0 3.0 2.0 23 385
+ 19.438763 3 1 ack 40 ------- 0 3.0 2.0 24 387
- 19.438763 3 1 ack 40 ------- 0 3.0 2.0 24 387
r 19.456963 3 1 ack 40 ------- 0 3.0 2.0 24 387
