+ 7.109163 15 1 ack 40 ------- 0 15.0 14.0 0 128
- 7.109163 15 1 ack 40 ------- 0 15.0 14.0 0 128
r 7.127363 15 1 ack 40 ------- 0 15.0 14.0 0 128
+ 7.845163 15 1 ack 40 ------- 0 15.0 14.0 1 152
- 7.845163 15 1 ack 40 ------- 0 15.0 14.0 1 152
r 7.863363 15 1 ack 40 ------- 0 15.0 14.0 1 152
+ 8.091563 15 1 ack 40 ------- 0 15.0 14.0 2 160
- 8.091563 15 1 ack 40 ------- 0 15.0 14.0 2 160
r 8.109763 15 1 ack 40 ------- 0 15.0 14.0 2 160
+ 9.206763 15 1 ack 40 ------- 0 15.0 14.0 3 191
- 9.206763 15 1 ack 40 ------- 0 15.0 14.0 3 191
r 9.224963 15 1 ack 40 ------- 0 15.0 14.0 3 191
+ 10.691563 15 1 ack 40 ------- 0 15.0 14.0 3 223
- 10.691563 15 1 ack 40 ------- 0 15.0 14.0 3 223
r 10.709763 15 1 ack 40 ------- 0 15.0 14.0 3 223
+ 11.923563 15 1 ack 40 ------- 0 15.0 14.0 3 246
- 11.923563 15 1 ack 40 ------- 0 15.0 14.0 3 246
r 11.941763 15 1 ack 40 ------- 0 15.0 14.0 3 246
+ 13.401963 15 1 ack 40 ------- 0 15.0 14.0 4 273
- 13.401963 15 1 ack 40 ------- 0 15.0 14.0 4 273
r 13.420163 15 1 ack 40 ------- 0 15.0 14.0 4 273
+ 13.525163 15 1 ack 40 ------- 0 15.0 14.0 5 275
- 13.525163 15 1 ack 40 ------- 0 15.0 14.0 5 275
r 13.543363 15 1 ack 40 ------- 0 15.0 14.0 5 275
+ 14.880363 15 1 ack 40 ------- 0 15.0 14.0 6 306
- 14.880363 15 1 ack 40 ------- 0 15.0 14.0 6 306
r 14.898563 15 1 ack 40 ------- 0 15.0 14.0 6 306
