+ 2.684081 5 1 ack 40 ------- 0 5.0 4.0 0 38
- 2.684081 5 1 ack 40 ------- 0 5.0 4.0 0 38
r 2.702281 5 1 ack 40 ------- 0 5.0 4.0 0 38
+ 3.420081 5 1 ack 40 ------- 0 5.0 4.0 1 55
- 3.420081 5 1 ack 40 ------- 0 5.0 4.0 1 55
r 3.438281 5 1 ack 40 ------- 0 5.0 4.0 1 55
+ 3.666481 5 1 ack 40 ------- 0 5.0 4.0 2 61
- 3.666481 5 1 ack 40 ------- 0 5.0 4.0 2 61
r 3.684681 5 1 ack 40 ------- 0 5.0 4.0 2 61
+ 4.282481 5 1 ack 40 ------- 0 5.0 4.0 2 73
- 4.282481 5 1 ack 40 ------- 0 5.0 4.0 2 73
r 4.300681 5 1 ack 40 ------- 0 5.0 4.0 2 73
+ 4.778481 5 1 ack 40 ------- 0 5.0 4.0 2 86
- 4.778481 5 1 ack 40 ------- 0 5.0 4.0 2 86
r 4.796681 5 1 ack 40 ------- 0 5.0 4.0 2 86
+ 4.901681 5 1 ack 40 ------- 0 5.0 4.0 3 88
- 4.901681 5 1 ack 40 ------- 0 5.0 4.0 3 88
r 4.919881 5 1 ack 40 ------- 0 5.0 4.0 3 88
+ 5.887281 5 1 ack 40 ------- 0 5.0 4.0 3 103
- 5.887281 5 1 ack 40 ------- 0 5.0 4.0 3 103
r 5.905481 5 1 ack 40 ------- 0 5.0 4.0 3 103
+ 6.256881 5 1 ack 40 ------- 0 5.0 4.0 4 107
- 6.256881 5 1 ack 40 ------- 0 5.0 4.0 4 107
r 6.275081 5 1 ack 40 ------- 0 5.0 4.0 4 107
+ 6.380081 5 1 ack 40 ------- 0 5.0 4.0 5 108
- 6.380081 5 1 ack 40 ------- 0 5.0 4.0 5 108
r 6.398281 5 1 ack 40 ------- 0 5.0 4.0 5 108
+ 7.242481 5 1 ack 40 ------- 0 5.0 4.0 6 121
- 7.242481 5 1 ack 40 ------- 0 5.0 4.0 6 121
r 7.260681 5 1 ack 40 ------- 0 5.0 4.0 6 121
+ 7.365681 5 1 ack 40 ------- 0 5.0 4.0 7 124
- 7.365681 5 1 ack 40 ------- 0 5.0 4.0 7 124
r 7.383881 5 1 ack 40 ------- 0 5.0 4.0 7 124
+ 8.104881 5 1 ack 40 ------- 0 5.0 4.0 8 139
- 8.104881 5 1 ack 40 ------- 0 5.0 4.0 8 139
r 8.123081 5 1 ack 40 ------- 0 5.0 4.0 8 139
+ 8.228081 5 1 ack 40 ------- 0 5.0 4.0 9 141
- 8.228081 5 1 ack 40 ------- 0 5.0 4.0 9 141
r 8.246281 5 1 ack 40 ------- 0 5.0 4.0 9 141
+ 8.351281 5 1 ack 40 ------- 0 5.0 4.0 10 144
- 8.351281 5 1 ack 40 ------- 0 5.0 4.0 10 144
r 8.369481 5 1 ack 40 ------- 0 5.0 4.0 10 144
+ 9.460081 5 1 ack 40 ------- 0 5.0 4.0 11 165
- 9.460081 5 1 ack 40 ------- 0 5.0 4.0 11 165
r 9.478281 5 1 ack 40 ------- 0 5.0 4.0 11 165
+ 9.583281 5 1 ack 40 ------- 0 5.0 4.0 12 167
- 9.583281 5 1 ack 40 ------- 0 5.0 4.0 12 167
r 9.601481 5 1 ack 40 ------- 0 5.0 4.0 12 167
+ 9.706481 5 1 ack 40 ------- 0 5.0 4.0 13 169
- 9.706481 5 1 ack 40 ------- 0 5.0 4.0 13 169
r 9.724681 5 1 ack 40 ------- 0 5.0 4.0 13 169
+ 9.952881 5 1 ack 40 ------- 0 5.0 4.0 14 173
- 9.952881 5 1 ack 40 ------- 0 5.0 4.0 14 173
r 9.971081 5 1 ack 40 ------- 0 5.0 4.0 14 173
+ 10.938481 5 1 ack 40 ------- 0 5.0 4.0 15 191
- 10.938481 5 1 ack 40 ------- 0 5.0 4.0 15 191
r 10.956681 5 1 ack 40 ------- 0 5.0 4.0 15 191
+ 11.061681 5 1 ack 40 ------- 0 5.0 4.0 16 193
- 11.061681 5 1 ack 40 ------- 0 5.0 4.0 16 193
r 11.079881 5 1 ack 40 ------- 0 5.0 4.0 16 193
+ 11.184881 5 1 ack 40 ------- 0 5.0 4.0 17 195
- 11.184881 5 1 ack 40 ------- 0 5.0 4.0 17 195
r 11.203081 5 1 ack 40 ------- 0 5.0 4.0 17 195
+ 11.431281 5 1 ack 40 ------- 0 5.0 4.0 18 199
- 11.431281 5 1 ack 40 ------- 0 5.0 4.0 18 199
r 11.449481 5 1 ack 40 ------- 0 5.0 4.0 18 199
+ 11.554481 5 1 ack 40 ------- 0 5.0 4.0 19 201
- 11.554481 5 1 ack 40 ------- 0 5.0 4.0 19 201
r 11.572681 5 1 ack 40 ------- 0 5.0 4.0 19 201
+ 12.416881 5 1 ack 40 ------- 0 5.0 4.0 20 216
- 12.416881 5 1 ack 40 ------- 0 5.0 4.0 20 216
r 12.435081 5 1 ack 40 ------- 0 5.0 4.0 20 216
+ 12.540081 5 1 ack 40 ------- 0 5.0 4.0 21 218
- 12.540081 5 1 ack 40 ------- 0 5.0 4.0 21 218
r 12.558281 5 1 ack 40 ------- 0 5.0 4.0 21 218
+ 12.663281 5 1 ack 40 ------- 0 5.0 4.0 22 220
- 12.663281 5 1 ack 40 ------- 0 5.0 4.0 22 220
r 12.681481 5 1 ack 40 ------- 0 5.0 4.0 22 220
+ 12.909681 5 1 ack 40 ------- 0 5.0 4.0 23 224
- 12.909681 5 1 ack 40 ------- 0 5.0 4.0 23 224
r 12.927881 5 1 ack 40 ------- 0 5.0 4.0 23 224
+ 13.032881 5 1 ack 40 ------- 0 5.0 4.0 24 226
- 13.032881 5 1 ack 40 ------- 0 5.0 4.0 24 226
r 13.051081 5 1 ack 40 ------- 0 5.0 4.0 24 226
+ 13.156081 5 1 ack 40 ------- 0 5.0 4.0 25 228
- 13.156081 5 1 ack 40 ------- 0 5.0 4.0 25 228
r 13.174281 5 1 ack 40 ------- 0 5.0 4.0 25 228
+ 13.895281 5 1 ack 40 ------- 0 5.0 4.0 26 239
- 13.895281 5 1 ack 40 ------- 0 5.0 4.0 26 239
r 13.913481 5 1 ack 40 ------- 0 5.0 4.0 26 239
+ 14.018481 5 1 ack 40 ------- 0 5.0 4.0 27 241
- 14.018481 5 1 ack 40 ------- 0 5.0 4.0 27 241
r 14.036681 5 1 ack 40 ------- 0 5.0 4.0 27 241
+ 14.141681 5 1 ack 40 ------- 0 5.0 4.0 28 243
- 14.141681 5 1 ack 40 ------- 0 5.0 4.0 28 243
r 14.159881 5 1 ack 40 ------- 0 5.0 4.0 28 243
+ 14.388081 5 1 ack 40 ------- 0 5.0 4.0 29 248
- 14.388081 5 1 ack 40 ------- 0 5.0 4.0 29 248
r 14.406281 5 1 ack 40 ------- 0 5.0 4.0 29 248
+ 14.511281 5 1 ack 40 ------- 0 5.0 4.0 30 250
- 14.511281 5 1 ack 40 ------- 0 5.0 4.0 30 250
r 14.529481 5 1 ack 40 ------- 0 5.0 4.0 30 250
+ 14.634481 5 1 ack 40 ------- 0 5.0 4.0 31 252
- 14.634481 5 1 ack 40 ------- 0 5.0 4.0 31 252
r 14.652681 5 1 ack 40 ------- 0 5.0 4.0 31 252
+ 14.757681 5 1 ack 40 ------- 0 5.0 4.0 32 254
- 14.757681 5 1 ack 40 ------- 0 5.0 4.0 32 254
r 14.775881 5 1 ack 40 ------- 0 5.0 4.0 32 254
+ 15.127281 5 1 ack 40 ------- 0 5.0 4.0 33 260
- 15.127281 5 1 ack 40 ------- 0 5.0 4.0 33 260
r 15.145481 5 1 ack 40 ------- 0 5.0 4.0 33 260
+ 15.250481 5 1 ack 40 ------- 0 5.0 4.0 34 263
- 15.250481 5 1 ack 40 ------- 0 5.0 4.0 34 263
r 15.268681 5 1 ack 40 ------- 0 5.0 4.0 34 263
+ 15.373681 5 1 ack 40 ------- 0 5.0 4.0 35 265
- 15.373681 5 1 ack 40 ------- 0 5.0 4.0 35 265
r 15.391881 5 1 ack 40 ------- 0 5.0 4.0 35 265
+ 15.743281 5 1 ack 40 ------- 0 5.0 4.0 36 272
- 15.743281 5 1 ack 40 ------- 0 5.0 4.0 36 272
r 15.761481 5 1 ack 40 ------- 0 5.0 4.0 36 272
+ 15.866481 5 1 ack 40 ------- 0 5.0 4.0 37 274
- 15.866481 5 1 ack 40 ------- 0 5.0 4.0 37 274
r 15.884681 5 1 ack 40 ------- 0 5.0 4.0 37 274
+ 15.989681 5 1 ack 40 ------- 0 5.0 4.0 38 277
- 15.989681 5 1 ack 40 ------- 0 5.0 4.0 38 277
r 16.007881 5 1 ack 40 ------- 0 5.0 4.0 38 277
+ 16.112881 5 1 ack 40 ------- 0 5.0 4.0 39 279
- 16.112881 5 1 ack 40 ------- 0 5.0 4.0 39 279
r 16.131081 5 1 ack 40 ------- 0 5.0 4.0 39 279
+ 16.482481 5 1 ack 40 ------- 0 5.0 4.0 40 286
- 16.482481 5 1 ack 40 ------- 0 5.0 4.0 40 286
r 16.500681 5 1 ack 40 ------- 0 5.0 4.0 40 286
+ 16.605681 5 1 ack 40 ------- 0 5.0 4.0 41 288
- 16.605681 5 1 ack 40 ------- 0 5.0 4.0 41 288
r 16.623881 5 1 ack 40 ------- 0 5.0 4.0 41 288
+ 16.728881 5 1 ack 40 ------- 0 5.0 4.0 42 291
- 16.728881 5 1 ack 40 ------- 0 5.0 4.0 42 291
r 16.747081 5 1 ack 40 ------- 0 5.0 4.0 42 291
+ 16.852081 5 1 ack 40 ------- 0 5.0 4.0 43 293
- 16.852081 5 1 ack 40 ------- 0 5.0 4.0 43 293
r 16.870281 5 1 ack 40 ------- 0 5.0 4.0 43 293
+ 17.344881 5 1 ack 40 ------- 0 5.0 4.0 43 302
- 17.344881 5 1 ack 40 ------- 0 5.0 4.0 43 302
r 17.363081 5 1 ack 40 ------- 0 5.0 4.0 43 302
+ 17.591281 5 1 ack 40 ------- 0 5.0 4.0 43 307
- 17.591281 5 1 ack 40 ------- 0 5.0 4.0 43 307
r 17.609481 5 1 ack 40 ------- 0 5.0 4.0 43 307
+ 18.084081 5 1 ack 40 ------- 0 5.0 4.0 43 315
- 18.084081 5 1 ack 40 ------- 0 5.0 4.0 43 315
r 18.102281 5 1 ack 40 ------- 0 5.0 4.0 43 315
+ 18.207281 5 1 ack 40 ------- 0 5.0 4.0 43 317
- 18.207281 5 1 ack 40 ------- 0 5.0 4.0 43 317
r 18.225481 5 1 ack 40 ------- 0 5.0 4.0 43 317
+ 18.330481 5 1 ack 40 ------- 0 5.0 4.0 43 318
- 18.330481 5 1 ack 40 ------- 0 5.0 4.0 43 318
r 18.348681 5 1 ack 40 ------- 0 5.0 4.0 43 318
+ 18.453681 5 1 ack 40 ------- 0 5.0 4.0 43 319
- 18.453681 5 1 ack 40 ------- 0 5.0 4.0 43 319
r 18.471881 5 1 ack 40 ------- 0 5.0 4.0 43 319
+ 19.562481 5 1 ack 40 ------- 0 5.0 4.0 45 337
- 19.562481 5 1 ack 40 ------- 0 5.0 4.0 45 337
r 19.580681 5 1 ack 40 ------- 0 5.0 4.0 45 337
