+ 0.304881 3 1 ack 40 ------- 0 3.0 2.0 0 1
- 0.304881 3 1 ack 40 ------- 0 3.0 2.0 0 1
r 0.323081 3 1 ack 40 ------- 0 3.0 2.0 0 1
+ 0.774081 3 1 ack 40 ------- 0 3.0 2.0 1 5
- 0.774081 3 1 ack 40 ------- 0 3.0 2.0 1 5
r 0.792281 3 1 ack 40 ------- 0 3.0 2.0 1 5
+ 0.897281 3 1 ack 40 ------- 0 3.0 2.0 2 8
- 0.897281 3 1 ack 40 ------- 0 3.0 2.0 2 8
r 0.915481 3 1 ack 40 ------- 0 3.0 2.0 2 8
+ 1.104081 3 1 ack 40 ------- 0 3.0 2.0 2 10
- 1.104081 3 1 ack 40 ------- 0 3.0 2.0 2 10
r 1.122281 3 1 ack 40 ------- 0 3.0 2.0 2 10
+ 1.243281 3 1 ack 40 ------- 0 3.0 2.0 2 12
- 1.243281 3 1 ack 40 ------- 0 3.0 2.0 2 12
r 1.261481 3 1 ack 40 ------- 0 3.0 2.0 2 12
+ 1.366481 3 1 ack 40 ------- 0 3.0 2.0 3 14
- 1.366481 3 1 ack 40 ------- 0 3.0 2.0 3 14
r 1.384681 3 1 ack 40 ------- 0 3.0 2.0 3 14
+ 1.489681 3 1 ack 40 ------- 0 3.0 2.0 4 15
- 1.489681 3 1 ack 40 ------- 0 3.0 2.0 4 15
r 1.507881 3 1 ack 40 ------- 0 3.0 2.0 4 15
+ 1.612881 3 1 ack 40 ------- 0 3.0 2.0 5 17
- 1.612881 3 1 ack 40 ------- 0 3.0 2.0 5 17
r 1.631081 3 1 ack 40 ------- 0 3.0 2.0 5 17
+ 1.736081 3 1 ack 40 ------- 0 3.0 2.0 6 19
- 1.736081 3 1 ack 40 ------- 0 3.0 2.0 6 19
r 1.754281 3 1 ack 40 ------- 0 3.0 2.0 6 19
+ 1.958881 3 1 ack 40 ------- 0 3.0 2.0 7 21
- 1.958881 3 1 ack 40 ------- 0 3.0 2.0 7 21
r 1.977081 3 1 ack 40 ------- 0 3.0 2.0 7 21
+ 2.082081 3 1 ack 40 ------- 0 3.0 2.0 8 24
- 2.082081 3 1 ack 40 ------- 0 3.0 2.0 8 24
r 2.100281 3 1 ack 40 ------- 0 3.0 2.0 8 24
+ 2.205281 3 1 ack 40 ------- 0 3.0 2.0 9 26
- 2.205281 3 1 ack 40 ------- 0 3.0 2.0 9 26
r 2.223481 3 1 ack 40 ------- 0 3.0 2.0 9 26
+ 2.428081 3 1 ack 40 ------- 0 3.0 2.0 10 28
- 2.428081 3 1 ack 40 ------- 0 3.0 2.0 10 28
r 2.446281 3 1 ack 40 ------- 0 3.0 2.0 10 28
+ 2.551281 3 1 ack 40 ------- 0 3.0 2.0 11 31
- 2.551281 3 1 ack 40 ------- 0 3.0 2.0 11 31
r 2.569481 3 1 ack 40 ------- 0 3.0 2.0 11 31
+ 2.674481 3 1 ack 40 ------- 0 3.0 2.0 12 37
- 2.674481 3 1 ack 40 ------- 0 3.0 2.0 12 37
r 2.692681 3 1 ack 40 ------- 0 3.0 2.0 12 37
+ 2.800881 3 1 ack 40 ------- 0 3.0 2.0 13 43
- 2.800881 3 1 ack 40 ------- 0 3.0 2.0 13 43
r 2.819081 3 1 ack 40 ------- 0 3.0 2.0 13 43
+ 2.927281 3 1 ack 40 ------- 0 3.0 2.0 14 45
- 2.927281 3 1 ack 40 ------- 0 3.0 2.0 14 45
r 2.945481 3 1 ack 40 ------- 0 3.0 2.0 14 45
+ 3.173681 3 1 ack 40 ------- 0 3.0 2.0 15 52
- 3.173681 3 1 ack 40 ------- 0 3.0 2.0 15 52
r 3.191881 3 1 ack 40 ------- 0 3.0 2.0 15 52
+ 3.543281 3 1 ack 40 ------- 0 3.0 2.0 16 59
- 3.543281 3 1 ack 40 ------- 0 3.0 2.0 16 59
r 3.561481 3 1 ack 40 ------- 0 3.0 2.0 16 59
+ 3.789681 3 1 ack 40 ------- 0 3.0 2.0 17 64
- 3.789681 3 1 ack 40 ------- 0 3.0 2.0 17 64
r 3.807881 3 1 ack 40 ------- 0 3.0 2.0 17 64
+ 3.912881 3 1 ack 40 ------- 0 3.0 2.0 18 67
- 3.912881 3 1 ack 40 ------- 0 3.0 2.0 18 67
r 3.931081 3 1 ack 40 ------- 0 3.0 2.0 18 67
+ 4.159281 3 1 ack 40 ------- 0 3.0 2.0 19 71
- 4.159281 3 1 ack 40 ------- 0 3.0 2.0 19 71
r 4.177481 3 1 ack 40 ------- 0 3.0 2.0 19 71
+ 4.528881 3 1 ack 40 ------- 0 3.0 2.0 20 78
- 4.528881 3 1 ack 40 ------- 0 3.0 2.0 20 78
r 4.547081 3 1 ack 40 ------- 0 3.0 2.0 20 78
+ 5.148081 3 1 ack 40 ------- 0 3.0 2.0 20 92
- 5.148081 3 1 ack 40 ------- 0 3.0 2.0 20 92
r 5.166281 3 1 ack 40 ------- 0 3.0 2.0 20 92
+ 5.271281 3 1 ack 40 ------- 0 3.0 2.0 20 94
- 5.271281 3 1 ack 40 ------- 0 3.0 2.0 20 94
r 5.289481 3 1 ack 40 ------- 0 3.0 2.0 20 94
+ 5.394481 3 1 ack 40 ------- 0 3.0 2.0 20 96
- 5.394481 3 1 ack 40 ------- 0 3.0 2.0 20 96
r 5.412681 3 1 ack 40 ------- 0 3.0 2.0 20 96
+ 5.517681 3 1 ack 40 ------- 0 3.0 2.0 20 98
- 5.517681 3 1 ack 40 ------- 0 3.0 2.0 20 98
r 5.535881 3 1 ack 40 ------- 0 3.0 2.0 20 98
+ 6.010481 3 1 ack 40 ------- 0 3.0 2.0 20 105
- 6.010481 3 1 ack 40 ------- 0 3.0 2.0 20 105
r 6.028681 3 1 ack 40 ------- 0 3.0 2.0 20 105
+ 6.626481 3 1 ack 40 ------- 0 3.0 2.0 20 112
- 6.626481 3 1 ack 40 ------- 0 3.0 2.0 20 112
r 6.644681 3 1 ack 40 ------- 0 3.0 2.0 20 112
+ 6.749681 3 1 ack 40 ------- 0 3.0 2.0 20 113
- 6.749681 3 1 ack 40 ------- 0 3.0 2.0 20 113
r 6.767881 3 1 ack 40 ------- 0 3.0 2.0 20 113
+ 6.872881 3 1 ack 40 ------- 0 3.0 2.0 28 114
- 6.872881 3 1 ack 40 ------- 0 3.0 2.0 28 114
r 6.891081 3 1 ack 40 ------- 0 3.0 2.0 28 114
+ 7.612081 3 1 ack 40 ------- 0 3.0 2.0 29 129
- 7.612081 3 1 ack 40 ------- 0 3.0 2.0 29 129
r 7.630281 3 1 ack 40 ------- 0 3.0 2.0 29 129
+ 7.735281 3 1 ack 40 ------- 0 3.0 2.0 30 132
- 7.735281 3 1 ack 40 ------- 0 3.0 2.0 30 132
r 7.753481 3 1 ack 40 ------- 0 3.0 2.0 30 132
+ 8.720881 3 1 ack 40 ------- 0 3.0 2.0 31 150
- 8.720881 3 1 ack 40 ------- 0 3.0 2.0 31 150
r 8.739081 3 1 ack 40 ------- 0 3.0 2.0 31 150
+ 8.844081 3 1 ack 40 ------- 0 3.0 2.0 32 152
- 8.844081 3 1 ack 40 ------- 0 3.0 2.0 32 152
r 8.862281 3 1 ack 40 ------- 0 3.0 2.0 32 152
+ 8.967281 3 1 ack 40 ------- 0 3.0 2.0 33 154
- 8.967281 3 1 ack 40 ------- 0 3.0 2.0 33 154
r 8.985481 3 1 ack 40 ------- 0 3.0 2.0 33 154
+ 10.199281 3 1 ack 40 ------- 0 3.0 2.0 34 178
- 10.199281 3 1 ack 40 ------- 0 3.0 2.0 34 178
r 10.217481 3 1 ack 40 ------- 0 3.0 2.0 34 178
+ 10.322481 3 1 ack 40 ------- 0 3.0 2.0 35 180
- 10.322481 3 1 ack 40 ------- 0 3.0 2.0 35 180
r 10.340681 3 1 ack 40 ------- 0 3.0 2.0 35 180
+ 10.445681 3 1 ack 40 ------- 0 3.0 2.0 36 182
- 10.445681 3 1 ack 40 ------- 0 3.0 2.0 36 182
r 10.463881 3 1 ack 40 ------- 0 3.0 2.0 36 182
+ 10.568881 3 1 ack 40 ------- 0 3.0 2.0 37 184
- 10.568881 3 1 ack 40 ------- 0 3.0 2.0 37 184
r 10.587081 3 1 ack 40 ------- 0 3.0 2.0 37 184
+ 11.677681 3 1 ack 40 ------- 0 3.0 2.0 38 204
- 11.677681 3 1 ack 40 ------- 0 3.0 2.0 38 204
r 11.695881 3 1 ack 40 ------- 0 3.0 2.0 38 204
+ 11.800881 3 1 ack 40 ------- 0 3.0 2.0 39 206
- 11.800881 3 1 ack 40 ------- 0 3.0 2.0 39 206
r 11.819081 3 1 ack 40 ------- 0 3.0 2.0 39 206
+ 11.924081 3 1 ack 40 ------- 0 3.0 2.0 40 208
- 11.924081 3 1 ack 40 ------- 0 3.0 2.0 40 208
r 11.942281 3 1 ack 40 ------- 0 3.0 2.0 40 208
+ 12.047281 3 1 ack 40 ------- 0 3.0 2.0 41 210
- 12.047281 3 1 ack 40 ------- 0 3.0 2.0 41 210
r 12.065481 3 1 ack 40 ------- 0 3.0 2.0 41 210
+ 12.170481 3 1 ack 40 ------- 0 3.0 2.0 42 212
- 12.170481 3 1 ack 40 ------- 0 3.0 2.0 42 212
r 12.188681 3 1 ack 40 ------- 0 3.0 2.0 42 212
+ 13.279281 3 1 ack 40 ------- 0 3.0 2.0 42 231
- 13.279281 3 1 ack 40 ------- 0 3.0 2.0 42 231
r 13.297481 3 1 ack 40 ------- 0 3.0 2.0 42 231
+ 13.402481 3 1 ack 40 ------- 0 3.0 2.0 42 233
- 13.402481 3 1 ack 40 ------- 0 3.0 2.0 42 233
r 13.420681 3 1 ack 40 ------- 0 3.0 2.0 42 233
+ 13.525681 3 1 ack 40 ------- 0 3.0 2.0 42 235
- 13.525681 3 1 ack 40 ------- 0 3.0 2.0 42 235
r 13.543881 3 1 ack 40 ------- 0 3.0 2.0 42 235
+ 13.648881 3 1 ack 40 ------- 0 3.0 2.0 42 237
- 13.648881 3 1 ack 40 ------- 0 3.0 2.0 42 237
r 13.667081 3 1 ack 40 ------- 0 3.0 2.0 42 237
+ 14.880881 3 1 ack 40 ------- 0 3.0 2.0 42 256
- 14.880881 3 1 ack 40 ------- 0 3.0 2.0 42 256
r 14.899081 3 1 ack 40 ------- 0 3.0 2.0 42 256
+ 15.004081 3 1 ack 40 ------- 0 3.0 2.0 47 257
- 15.004081 3 1 ack 40 ------- 0 3.0 2.0 47 257
r 15.022281 3 1 ack 40 ------- 0 3.0 2.0 47 257
+ 16.236081 3 1 ack 40 ------- 0 3.0 2.0 49 281
- 16.236081 3 1 ack 40 ------- 0 3.0 2.0 49 281
r 16.254281 3 1 ack 40 ------- 0 3.0 2.0 49 281
+ 16.359281 3 1 ack 40 ------- 0 3.0 2.0 49 284
- 16.359281 3 1 ack 40 ------- 0 3.0 2.0 49 284
r 16.377481 3 1 ack 40 ------- 0 3.0 2.0 49 284
+ 17.714481 3 1 ack 40 ------- 0 3.0 2.0 50 309
- 17.714481 3 1 ack 40 ------- 0 3.0 2.0 50 309
r 17.732681 3 1 ack 40 ------- 0 3.0 2.0 50 309
+ 17.837681 3 1 ack 40 ------- 0 3.0 2.0 51 310
- 17.837681 3 1 ack 40 ------- 0 3.0 2.0 51 310
r 17.855881 3 1 ack 40 ------- 0 3.0 2.0 51 310
+ 17.960881 3 1 ack 40 ------- 0 3.0 2.0 52 313
- 17.960881 3 1 ack 40 ------- 0 3.0 2.0 52 313
r 17.979081 3 1 ack 40 ------- 0 3.0 2.0 52 313
+ 19.192881 3 1 ack 40 ------- 0 3.0 2.0 53 330
- 19.192881 3 1 ack 40 ------- 0 3.0 2.0 53 330
r 19.211081 3 1 ack 40 ------- 0 3.0 2.0 53 330
+ 19.316081 3 1 ack 40 ------- 0 3.0 2.0 54 332
- 19.316081 3 1 ack 40 ------- 0 3.0 2.0 54 332
r 19.334281 3 1 ack 40 ------- 0 3.0 2.0 54 332
+ 19.439281 3 1 ack 40 ------- 0 3.0 2.0 55 335
- 19.439281 3 1 ack 40 ------- 0 3.0 2.0 55 335
r 19.457481 3 1 ack 40 ------- 0 3.0 2.0 55 335
