+ 4.535281 9 1 ack 40 ------- 0 9.0 8.0 0 79
- 4.535281 9 1 ack 40 ------- 0 9.0 8.0 0 79
r 4.553481 9 1 ack 40 ------- 0 9.0 8.0 0 79
+ 9.213681 9 1 ack 40 ------- 0 9.0 8.0 1 160
- 9.213681 9 1 ack 40 ------- 0 9.0 8.0 1 160
r 9.231881 9 1 ack 40 ------- 0 9.0 8.0 1 160
+ 10.815281 9 1 ack 40 ------- 0 9.0 8.0 1 189
- 10.815281 9 1 ack 40 ------- 0 9.0 8.0 1 189
r 10.833481 9 1 ack 40 ------- 0 9.0 8.0 1 189
+ 12.293681 9 1 ack 40 ------- 0 9.0 8.0 1 214
- 12.293681 9 1 ack 40 ------- 0 9.0 8.0 1 214
r 12.311881 9 1 ack 40 ------- 0 9.0 8.0 1 214
+ 13.772081 9 1 ack 40 ------- 0 9.0 8.0 1 238
- 13.772081 9 1 ack 40 ------- 0 9.0 8.0 1 238
r 13.790281 9 1 ack 40 ------- 0 9.0 8.0 1 238
+ 17.468081 9 1 ack 40 ------- 0 9.0 8.0 5 304
- 17.468081 9 1 ack 40 ------- 0 9.0 8.0 5 304
r 17.486281 9 1 ack 40 ------- 0 9.0 8.0 5 304
+ 19.069681 9 1 ack 40 ------- 0 9.0 8.0 5 328
- 19.069681 9 1 ack 40 ------- 0 9.0 8.0 5 328
r 19.087881 9 1 ack 40 ------- 0 9.0 8.0 5 328
