+ 2.557681 7 1 ack 40 ------- 0 7.0 6.0 0 32
- 2.557681 7 1 ack 40 ------- 0 7.0 6.0 0 32
r 2.575881 7 1 ack 40 ------- 0 7.0 6.0 0 32
+ 3.050481 7 1 ack 40 ------- 0 7.0 6.0 1 47
- 3.050481 7 1 ack 40 ------- 0 7.0 6.0 1 47
r 3.068681 7 1 ack 40 ------- 0 7.0 6.0 1 47
+ 3.296881 7 1 ack 40 ------- 0 7.0 6.0 2 54
- 3.296881 7 1 ack 40 ------- 0 7.0 6.0 2 54
r 3.315081 7 1 ack 40 ------- 0 7.0 6.0 2 54
+ 4.036081 7 1 ack 40 ------- 0 7.0 6.0 2 69
- 4.036081 7 1 ack 40 ------- 0 7.0 6.0 2 69
r 4.054281 7 1 ack 40 ------- 0 7.0 6.0 2 69
+ 4.405681 7 1 ack 40 ------- 0 7.0 6.0 2 76
- 4.405681 7 1 ack 40 ------- 0 7.0 6.0 2 76
r 4.423881 7 1 ack 40 ------- 0 7.0 6.0 2 76
+ 4.652081 7 1 ack 40 ------- 0 7.0 6.0 3 84
- 4.652081 7 1 ack 40 ------- 0 7.0 6.0 3 84
r 4.670281 7 1 ack 40 ------- 0 7.0 6.0 3 84
+ 5.024881 7 1 ack 40 ------- 0 7.0 6.0 4 90
- 5.024881 7 1 ack 40 ------- 0 7.0 6.0 4 90
r 5.043081 7 1 ack 40 ------- 0 7.0 6.0 4 90
+ 5.640881 7 1 ack 40 ------- 0 7.0 6.0 4 99
- 5.640881 7 1 ack 40 ------- 0 7.0 6.0 4 99
r 5.659081 7 1 ack 40 ------- 0 7.0 6.0 4 99
+ 5.764081 7 1 ack 40 ------- 0 7.0 6.0 4 101
- 5.764081 7 1 ack 40 ------- 0 7.0 6.0 4 101
r 5.782281 7 1 ack 40 ------- 0 7.0 6.0 4 101
+ 6.133681 7 1 ack 40 ------- 0 7.0 6.0 5 106
- 6.133681 7 1 ack 40 ------- 0 7.0 6.0 5 106
r 6.151881 7 1 ack 40 ------- 0 7.0 6.0 5 106
+ 6.503281 7 1 ack 40 ------- 0 7.0 6.0 6 110
- 6.503281 7 1 ack 40 ------- 0 7.0 6.0 6 110
r 6.521481 7 1 ack 40 ------- 0 7.0 6.0 6 110
+ 6.996081 7 1 ack 40 ------- 0 7.0 6.0 7 117
- 6.996081 7 1 ack 40 ------- 0 7.0 6.0 7 117
r 7.014281 7 1 ack 40 ------- 0 7.0 6.0 7 117
+ 7.119281 7 1 ack 40 ------- 0 7.0 6.0 8 119
- 7.119281 7 1 ack 40 ------- 0 7.0 6.0 8 119
r 7.137481 7 1 ack 40 ------- 0 7.0 6.0 8 119
+ 7.488881 7 1 ack 40 ------- 0 7.0 6.0 9 126
- 7.488881 7 1 ack 40 ------- 0 7.0 6.0 9 126
r 7.507081 7 1 ack 40 ------- 0 7.0 6.0 9 126
+ 7.858481 7 1 ack 40 ------- 0 7.0 6.0 10 134
- 7.858481 7 1 ack 40 ------- 0 7.0 6.0 10 134
r 7.876681 7 1 ack 40 ------- 0 7.0 6.0 10 134
+ 7.981681 7 1 ack 40 ------- 0 7.0 6.0 11 137
- 7.981681 7 1 ack 40 ------- 0 7.0 6.0 11 137
r 7.999881 7 1 ack 40 ------- 0 7.0 6.0 11 137
+ 8.474481 7 1 ack 40 ------- 0 7.0 6.0 12 146
- 8.474481 7 1 ack 40 ------- 0 7.0 6.0 12 146
r 8.492681 7 1 ack 40 ------- 0 7.0 6.0 12 146
+ 8.597681 7 1 ack 40 ------- 0 7.0 6.0 13 148
- 8.597681 7 1 ack 40 ------- 0 7.0 6.0 13 148
r 8.615881 7 1 ack 40 ------- 0 7.0 6.0 13 148
+ 9.090481 7 1 ack 40 ------- 0 7.0 6.0 14 157
- 9.090481 7 1 ack 40 ------- 0 7.0 6.0 14 157
r 9.108681 7 1 ack 40 ------- 0 7.0 6.0 14 157
+ 9.336881 7 1 ack 40 ------- 0 7.0 6.0 15 163
- 9.336881 7 1 ack 40 ------- 0 7.0 6.0 15 163
r 9.355081 7 1 ack 40 ------- 0 7.0 6.0 15 163
+ 9.829681 7 1 ack 40 ------- 0 7.0 6.0 16 171
- 9.829681 7 1 ack 40 ------- 0 7.0 6.0 16 171
r 9.847881 7 1 ack 40 ------- 0 7.0 6.0 16 171
+ 10.076081 7 1 ack 40 ------- 0 7.0 6.0 17 176
- 10.076081 7 1 ack 40 ------- 0 7.0 6.0 17 176
r 10.094281 7 1 ack 40 ------- 0 7.0 6.0 17 176
+ 10.692081 7 1 ack 40 ------- 0 7.0 6.0 17 187
- 10.692081 7 1 ack 40 ------- 0 7.0 6.0 17 187
r 10.710281 7 1 ack 40 ------- 0 7.0 6.0 17 187
+ 11.308081 7 1 ack 40 ------- 0 7.0 6.0 17 197
- 11.308081 7 1 ack 40 ------- 0 7.0 6.0 17 197
r 11.326281 7 1 ack 40 ------- 0 7.0 6.0 17 197
+ 12.786481 7 1 ack 40 ------- 0 7.0 6.0 17 222
- 12.786481 7 1 ack 40 ------- 0 7.0 6.0 17 222
r 12.804681 7 1 ack 40 ------- 0 7.0 6.0 17 222
+ 14.264881 7 1 ack 40 ------- 0 7.0 6.0 19 245
- 14.264881 7 1 ack 40 ------- 0 7.0 6.0 19 245
r 14.283081 7 1 ack 40 ------- 0 7.0 6.0 19 245
+ 15.496881 7 1 ack 40 ------- 0 7.0 6.0 21 267
- 15.496881 7 1 ack 40 ------- 0 7.0 6.0 21 267
r 15.515081 7 1 ack 40 ------- 0 7.0 6.0 21 267
+ 15.620081 7 1 ack 40 ------- 0 7.0 6.0 21 270
- 15.620081 7 1 ack 40 ------- 0 7.0 6.0 21 270
r 15.638281 7 1 ack 40 ------- 0 7.0 6.0 21 270
+ 16.975281 7 1 ack 40 ------- 0 7.0 6.0 22 295
- 16.975281 7 1 ack 40 ------- 0 7.0 6.0 22 295
r 16.993481 7 1 ack 40 ------- 0 7.0 6.0 22 295
+ 17.098481 7 1 ack 40 ------- 0 7.0 6.0 24 296
- 17.098481 7 1 ack 40 ------- 0 7.0 6.0 24 296
r 17.116681 7 1 ack 40 ------- 0 7.0 6.0 24 296
+ 17.221681 7 1 ack 40 ------- 0 7.0 6.0 24 300
- 17.221681 7 1 ack 40 ------- 0 7.0 6.0 24 300
r 17.239881 7 1 ack 40 ------- 0 7.0 6.0 24 300
+ 18.576881 7 1 ack 40 ------- 0 7.0 6.0 25 320
- 18.576881 7 1 ack 40 ------- 0 7.0 6.0 25 320
r 18.595081 7 1 ack 40 ------- 0 7.0 6.0 25 320
+ 18.700081 7 1 ack 40 ------- 0 7.0 6.0 26 321
- 18.700081 7 1 ack 40 ------- 0 7.0 6.0 26 321
r 18.718281 7 1 ack 40 ------- 0 7.0 6.0 26 321
+ 18.823281 7 1 ack 40 ------- 0 7.0 6.0 27 323
- 18.823281 7 1 ack 40 ------- 0 7.0 6.0 27 323
r 18.841481 7 1 ack 40 ------- 0 7.0 6.0 27 323
+ 18.946481 7 1 ack 40 ------- 0 7.0 6.0 28 326
- 18.946481 7 1 ack 40 ------- 0 7.0 6.0 28 326
r 18.964681 7 1 ack 40 ------- 0 7.0 6.0 28 326
+ 19.685681 7 1 ack 40 ------- 0 7.0 6.0 29 340
- 19.685681 7 1 ack 40 ------- 0 7.0 6.0 29 340
r 19.703881 7 1 ack 40 ------- 0 7.0 6.0 29 340
+ 19.808881 7 1 ack 40 ------- 0 7.0 6.0 30 342
- 19.808881 7 1 ack 40 ------- 0 7.0 6.0 30 342
r 19.827081 7 1 ack 40 ------- 0 7.0 6.0 30 342
+ 19.932081 7 1 ack 40 ------- 0 7.0 6.0 31 344
- 19.932081 7 1 ack 40 ------- 0 7.0 6.0 31 344
r 19.950281 7 1 ack 40 ------- 0 7.0 6.0 31 344
