+ 6.155163 11 1 ack 40 ------- 0 11.0 10.0 0 107
- 6.155163 11 1 ack 40 ------- 0 11.0 10.0 0 107
r 6.173363 11 1 ack 40 ------- 0 11.0 10.0 0 107
+ 7.510363 11 1 ack 40 ------- 0 11.0 10.0 1 137
- 7.510363 11 1 ack 40 ------- 0 11.0 10.0 1 137
r 7.528563 11 1 ack 40 ------- 0 11.0 10.0 1 137
+ 8.748763 11 1 ack 40 ------- 0 11.0 10.0 1 163
- 8.748763 11 1 ack 40 ------- 0 11.0 10.0 1 163
r 8.766963 11 1 ack 40 ------- 0 11.0 10.0 1 163
+ 8.995163 11 1 ack 40 ------- 0 11.0 10.0 1 168
- 8.995163 11 1 ack 40 ------- 0 11.0 10.0 1 168
r 9.013363 11 1 ack 40 ------- 0 11.0 10.0 1 168
+ 11.951963 11 1 ack 40 ------- 0 11.0 10.0 4 230
- 11.951963 11 1 ack 40 ------- 0 11.0 10.0 4 230
r 11.970163 11 1 ack 40 ------- 0 11.0 10.0 4 230
+ 19.467163 11 1 ack 40 ------- 0 11.0 10.0 5 361
- 19.467163 11 1 ack 40 ------- 0 11.0 10.0 5 361
r 19.485363 11 1 ack 40 ------- 0 11.0 10.0 5 361
