+ 7.393563 15 1 ack 40 ------- 0 15.0 14.0 0 133
- 7.393563 15 1 ack 40 ------- 0 15.0 14.0 0 133
r 7.411763 15 1 ack 40 ------- 0 15.0 14.0 0 133
+ 8.625563 15 1 ack 40 ------- 0 15.0 14.0 1 160
- 8.625563 15 1 ack 40 ------- 0 15.0 14.0 1 160
r 8.643763 15 1 ack 40 ------- 0 15.0 14.0 1 160
+ 8.871963 15 1 ack 40 ------- 0 15.0 14.0 2 165
- 8.871963 15 1 ack 40 ------- 0 15.0 14.0 2 165
r 8.890163 15 1 ack 40 ------- 0 15.0 14.0 2 165
+ 10.103963 15 1 ack 40 ------- 0 15.0 14.0 3 190
- 10.103963 15 1 ack 40 ------- 0 15.0 14.0 3 190
r 10.122163 15 1 ack 40 ------- 0 15.0 14.0 3 190
+ 10.227163 15 1 ack 40 ------- 0 15.0 14.0 4 193
- 10.227163 15 1 ack 40 ------- 0 15.0 14.0 4 193
r 10.245363 15 1 ack 40 ------- 0 15.0 14.0 4 193
+ 10.350363 15 1 ack 40 ------- 0 15.0 14.0 5 196
- 10.350363 15 1 ack 40 ------- 0 15.0 14.0 5 196
r 10.368563 15 1 ack 40 ------- 0 15.0 14.0 5 196
+ 10.473563 15 1 ack 40 ------- 0 15.0 14.0 6 199
- 10.473563 15 1 ack 40 ------- 0 15.0 14.0 6 199
r 10.491763 15 1 ack 40 ------- 0 15.0 14.0 6 199
+ 11.459163 15 1 ack 40 ------- 0 15.0 14.0 7 218
- 11.459163 15 1 ack 40 ------- 0 15.0 14.0 7 218
r 11.477363 15 1 ack 40 ------- 0 15.0 14.0 7 218
+ 11.582363 15 1 ack 40 ------- 0 15.0 14.0 8 221
- 11.582363 15 1 ack 40 ------- 0 15.0 14.0 8 221
r 11.600563 15 1 ack 40 ------- 0 15.0 14.0 8 221
+ 11.705563 15 1 ack 40 ------- 0 15.0 14.0 9 224
- 11.705563 15 1 ack 40 ------- 0 15.0 14.0 9 224
r 11.723763 15 1 ack 40 ------- 0 15.0 14.0 9 224
+ 11.828763 15 1 ack 40 ------- 0 15.0 14.0 10 227
- 11.828763 15 1 ack 40 ------- 0 15.0 14.0 10 227
r 11.846963 15 1 ack 40 ------- 0 15.0 14.0 10 227
+ 12.075163 15 1 ack 40 ------- 0 15.0 14.0 11 234
- 12.075163 15 1 ack 40 ------- 0 15.0 14.0 11 234
r 12.093363 15 1 ack 40 ------- 0 15.0 14.0 11 234
+ 12.321563 15 1 ack 40 ------- 0 15.0 14.0 11 241
- 12.321563 15 1 ack 40 ------- 0 15.0 14.0 11 241
r 12.339763 15 1 ack 40 ------- 0 15.0 14.0 11 241
+ 12.444763 15 1 ack 40 ------- 0 15.0 14.0 11 243
- 12.444763 15 1 ack 40 ------- 0 15.0 14.0 11 243
r 12.462963 15 1 ack 40 ------- 0 15.0 14.0 11 243
+ 12.937563 15 1 ack 40 ------- 0 15.0 14.0 11 249
- 12.937563 15 1 ack 40 ------- 0 15.0 14.0 11 249
r 12.955763 15 1 ack 40 ------- 0 15.0 14.0 11 249
+ 13.060763 15 1 ack 40 ------- 0 15.0 14.0 11 251
- 13.060763 15 1 ack 40 ------- 0 15.0 14.0 11 251
r 13.078963 15 1 ack 40 ------- 0 15.0 14.0 11 251
+ 13.183963 15 1 ack 40 ------- 0 15.0 14.0 11 252
- 13.183963 15 1 ack 40 ------- 0 15.0 14.0 11 252
r 13.202163 15 1 ack 40 ------- 0 15.0 14.0 11 252
+ 13.307163 15 1 ack 40 ------- 0 15.0 14.0 11 253
- 13.307163 15 1 ack 40 ------- 0 15.0 14.0 11 253
r 13.325363 15 1 ack 40 ------- 0 15.0 14.0 11 253
+ 13.553563 15 1 ack 40 ------- 0 15.0 14.0 11 257
- 13.553563 15 1 ack 40 ------- 0 15.0 14.0 11 257
r 13.571763 15 1 ack 40 ------- 0 15.0 14.0 11 257
+ 13.799963 15 1 ack 40 ------- 0 15.0 14.0 11 262
- 13.799963 15 1 ack 40 ------- 0 15.0 14.0 11 262
r 13.818163 15 1 ack 40 ------- 0 15.0 14.0 11 262
+ 13.923163 15 1 ack 40 ------- 0 15.0 14.0 11 263
- 13.923163 15 1 ack 40 ------- 0 15.0 14.0 11 263
r 13.941363 15 1 ack 40 ------- 0 15.0 14.0 11 263
+ 14.046363 15 1 ack 40 ------- 0 15.0 14.0 11 264
- 14.046363 15 1 ack 40 ------- 0 15.0 14.0 11 264
r 14.064563 15 1 ack 40 ------- 0 15.0 14.0 11 264
+ 14.169563 15 1 ack 40 ------- 0 15.0 14.0 11 265
- 14.169563 15 1 ack 40 ------- 0 15.0 14.0 11 265
r 14.187763 15 1 ack 40 ------- 0 15.0 14.0 11 265
+ 14.292763 15 1 ack 40 ------- 0 15.0 14.0 11 266
- 14.292763 15 1 ack 40 ------- 0 15.0 14.0 11 266
r 14.310963 15 1 ack 40 ------- 0 15.0 14.0 11 266
+ 14.415963 15 1 ack 40 ------- 0 15.0 14.0 18 267
- 14.415963 15 1 ack 40 ------- 0 15.0 14.0 18 267
r 14.434163 15 1 ack 40 ------- 0 15.0 14.0 18 267
+ 15.155163 15 1 ack 40 ------- 0 15.0 14.0 20 283
- 15.155163 15 1 ack 40 ------- 0 15.0 14.0 20 283
r 15.173363 15 1 ack 40 ------- 0 15.0 14.0 20 283
+ 15.401563 15 1 ack 40 ------- 0 15.0 14.0 20 290
- 15.401563 15 1 ack 40 ------- 0 15.0 14.0 20 290
r 15.419763 15 1 ack 40 ------- 0 15.0 14.0 20 290
+ 16.387163 15 1 ack 40 ------- 0 15.0 14.0 26 309
- 16.387163 15 1 ack 40 ------- 0 15.0 14.0 26 309
r 16.405363 15 1 ack 40 ------- 0 15.0 14.0 26 309
+ 16.510363 15 1 ack 40 ------- 0 15.0 14.0 26 314
- 16.510363 15 1 ack 40 ------- 0 15.0 14.0 26 314
r 16.528563 15 1 ack 40 ------- 0 15.0 14.0 26 314
+ 16.756763 15 1 ack 40 ------- 0 15.0 14.0 26 318
- 16.756763 15 1 ack 40 ------- 0 15.0 14.0 26 318
r 16.774963 15 1 ack 40 ------- 0 15.0 14.0 26 318
+ 17.003163 15 1 ack 40 ------- 0 15.0 14.0 26 322
- 17.003163 15 1 ack 40 ------- 0 15.0 14.0 26 322
r 17.021363 15 1 ack 40 ------- 0 15.0 14.0 26 322
+ 17.988763 15 1 ack 40 ------- 0 15.0 14.0 26 338
- 17.988763 15 1 ack 40 ------- 0 15.0 14.0 26 338
r 18.006963 15 1 ack 40 ------- 0 15.0 14.0 26 338
+ 18.111963 15 1 ack 40 ------- 0 15.0 14.0 26 339
- 18.111963 15 1 ack 40 ------- 0 15.0 14.0 26 339
r 18.130163 15 1 ack 40 ------- 0 15.0 14.0 26 339
+ 18.235163 15 1 ack 40 ------- 0 15.0 14.0 26 342
- 18.235163 15 1 ack 40 ------- 0 15.0 14.0 26 342
r 18.253363 15 1 ack 40 ------- 0 15.0 14.0 26 342
+ 18.358363 15 1 ack 40 ------- 0 15.0 14.0 26 344
- 18.358363 15 1 ack 40 ------- 0 15.0 14.0 26 344
r 18.376563 15 1 ack 40 ------- 0 15.0 14.0 26 344
+ 18.481563 15 1 ack 40 ------- 0 15.0 14.0 26 345
- 18.481563 15 1 ack 40 ------- 0 15.0 14.0 26 345
r 18.499763 15 1 ack 40 ------- 0 15.0 14.0 26 345
