+ 0.510266 3 1 ack 40 ------- 0 3.0 2.0 0 1
- 0.510266 3 1 ack 40 ------- 0 3.0 2.0 0 1
r 0.528466 3 1 ack 40 ------- 0 3.0 2.0 0 1
+ 0.979466 3 1 ack 40 ------- 0 3.0 2.0 1 5
- 0.979466 3 1 ack 40 ------- 0 3.0 2.0 1 5
r 0.997666 3 1 ack 40 ------- 0 3.0 2.0 1 5
+ 1.102666 3 1 ack 40 ------- 0 3.0 2.0 2 8
- 1.102666 3 1 ack 40 ------- 0 3.0 2.0 2 8
r 1.120866 3 1 ack 40 ------- 0 3.0 2.0 2 8
+ 1.309466 3 1 ack 40 ------- 0 3.0 2.0 2 9
- 1.309466 3 1 ack 40 ------- 0 3.0 2.0 2 9
r 1.327666 3 1 ack 40 ------- 0 3.0 2.0 2 9
+ 1.448666 3 1 ack 40 ------- 0 3.0 2.0 2 10
- 1.448666 3 1 ack 40 ------- 0 3.0 2.0 2 10
r 1.466866 3 1 ack 40 ------- 0 3.0 2.0 2 10
+ 1.571866 3 1 ack 40 ------- 0 3.0 2.0 3 12
- 1.571866 3 1 ack 40 ------- 0 3.0 2.0 3 12
r 1.590066 3 1 ack 40 ------- 0 3.0 2.0 3 12
+ 2.199963 3 1 ack 40 ------- 0 3.0 2.0 4 22
- 2.199963 3 1 ack 40 ------- 0 3.0 2.0 4 22
r 2.218163 3 1 ack 40 ------- 0 3.0 2.0 4 22
+ 2.446363 3 1 ack 40 ------- 0 3.0 2.0 5 28
- 2.446363 3 1 ack 40 ------- 0 3.0 2.0 5 28
r 2.464563 3 1 ack 40 ------- 0 3.0 2.0 5 28
+ 2.939163 3 1 ack 40 ------- 0 3.0 2.0 6 38
- 2.939163 3 1 ack 40 ------- 0 3.0 2.0 6 38
r 2.957363 3 1 ack 40 ------- 0 3.0 2.0 6 38
+ 3.188763 3 1 ack 40 ------- 0 3.0 2.0 7 42
- 3.188763 3 1 ack 40 ------- 0 3.0 2.0 7 42
r 3.206963 3 1 ack 40 ------- 0 3.0 2.0 7 42
+ 3.311963 3 1 ack 40 ------- 0 3.0 2.0 8 45
- 3.311963 3 1 ack 40 ------- 0 3.0 2.0 8 45
r 3.330163 3 1 ack 40 ------- 0 3.0 2.0 8 45
+ 3.804763 3 1 ack 40 ------- 0 3.0 2.0 9 55
- 3.804763 3 1 ack 40 ------- 0 3.0 2.0 9 55
r 3.822963 3 1 ack 40 ------- 0 3.0 2.0 9 55
+ 4.174363 3 1 ack 40 ------- 0 3.0 2.0 10 66
- 4.174363 3 1 ack 40 ------- 0 3.0 2.0 10 66
r 4.192563 3 1 ack 40 ------- 0 3.0 2.0 10 66
+ 4.300763 3 1 ack 40 ------- 0 3.0 2.0 11 68
- 4.300763 3 1 ack 40 ------- 0 3.0 2.0 11 68
r 4.318963 3 1 ack 40 ------- 0 3.0 2.0 11 68
+ 4.423963 3 1 ack 40 ------- 0 3.0 2.0 12 70
- 4.423963 3 1 ack 40 ------- 0 3.0 2.0 12 70
r 4.442163 3 1 ack 40 ------- 0 3.0 2.0 12 70
+ 5.039963 3 1 ack 40 ------- 0 3.0 2.0 13 83
- 5.039963 3 1 ack 40 ------- 0 3.0 2.0 13 83
r 5.058163 3 1 ack 40 ------- 0 3.0 2.0 13 83
+ 5.779163 3 1 ack 40 ------- 0 3.0 2.0 13 100
- 5.779163 3 1 ack 40 ------- 0 3.0 2.0 13 100
r 5.797363 3 1 ack 40 ------- 0 3.0 2.0 13 100
+ 5.902363 3 1 ack 40 ------- 0 3.0 2.0 13 102
- 5.902363 3 1 ack 40 ------- 0 3.0 2.0 13 102
r 5.920563 3 1 ack 40 ------- 0 3.0 2.0 13 102
+ 6.025563 3 1 ack 40 ------- 0 3.0 2.0 13 104
- 6.025563 3 1 ack 40 ------- 0 3.0 2.0 13 104
r 6.043763 3 1 ack 40 ------- 0 3.0 2.0 13 104
+ 7.017563 3 1 ack 40 ------- 0 3.0 2.0 13 126
- 7.017563 3 1 ack 40 ------- 0 3.0 2.0 13 126
r 7.035763 3 1 ack 40 ------- 0 3.0 2.0 13 126
+ 7.140763 3 1 ack 40 ------- 0 3.0 2.0 13 128
- 7.140763 3 1 ack 40 ------- 0 3.0 2.0 13 128
r 7.158963 3 1 ack 40 ------- 0 3.0 2.0 13 128
+ 7.263963 3 1 ack 40 ------- 0 3.0 2.0 17 129
- 7.263963 3 1 ack 40 ------- 0 3.0 2.0 17 129
r 7.282163 3 1 ack 40 ------- 0 3.0 2.0 17 129
+ 8.255963 3 1 ack 40 ------- 0 3.0 2.0 20 153
- 8.255963 3 1 ack 40 ------- 0 3.0 2.0 20 153
r 8.274163 3 1 ack 40 ------- 0 3.0 2.0 20 153
+ 8.379163 3 1 ack 40 ------- 0 3.0 2.0 20 157
- 8.379163 3 1 ack 40 ------- 0 3.0 2.0 20 157
r 8.397363 3 1 ack 40 ------- 0 3.0 2.0 20 157
+ 9.857563 3 1 ack 40 ------- 0 3.0 2.0 20 187
- 9.857563 3 1 ack 40 ------- 0 3.0 2.0 20 187
r 9.875763 3 1 ack 40 ------- 0 3.0 2.0 20 187
+ 9.980763 3 1 ack 40 ------- 0 3.0 2.0 20 189
- 9.980763 3 1 ack 40 ------- 0 3.0 2.0 20 189
r 9.998963 3 1 ack 40 ------- 0 3.0 2.0 20 189
+ 12.198363 3 1 ack 40 ------- 0 3.0 2.0 23 237
- 12.198363 3 1 ack 40 ------- 0 3.0 2.0 23 237
r 12.216563 3 1 ack 40 ------- 0 3.0 2.0 23 237
+ 18.604763 3 1 ack 40 ------- 0 3.0 2.0 24 346
- 18.604763 3 1 ack 40 ------- 0 3.0 2.0 24 346
r 18.622963 3 1 ack 40 ------- 0 3.0 2.0 24 346
+ 19.836763 3 1 ack 40 ------- 0 3.0 2.0 25 370
- 19.836763 3 1 ack 40 ------- 0 3.0 2.0 25 370
r 19.854963 3 1 ack 40 ------- 0 3.0 2.0 25 370
+ 19.959963 3 1 ack 40 ------- 0 3.0 2.0 26 372
- 19.959963 3 1 ack 40 ------- 0 3.0 2.0 26 372
r 19.978163 3 1 ack 40 ------- 0 3.0 2.0 26 372
