+ 6.651163 13 1 ack 40 ------- 0 13.0 12.0 0 120
- 6.651163 13 1 ack 40 ------- 0 13.0 12.0 0 120
r 6.669363 13 1 ack 40 ------- 0 13.0 12.0 0 120
+ 8.006363 13 1 ack 40 ------- 0 13.0 12.0 1 143
- 8.006363 13 1 ack 40 ------- 0 13.0 12.0 1 143
r 8.024563 13 1 ack 40 ------- 0 13.0 12.0 1 143
+ 9.118363 13 1 ack 40 ------- 0 13.0 12.0 1 170
- 9.118363 13 1 ack 40 ------- 0 13.0 12.0 1 170
r 9.136563 13 1 ack 40 ------- 0 13.0 12.0 1 170
+ 9.611163 13 1 ack 40 ------- 0 13.0 12.0 1 182
- 9.611163 13 1 ack 40 ------- 0 13.0 12.0 1 182
r 9.629363 13 1 ack 40 ------- 0 13.0 12.0 1 182
+ 10.596763 13 1 ack 40 ------- 0 13.0 12.0 1 202
- 10.596763 13 1 ack 40 ------- 0 13.0 12.0 1 202
r 10.614963 13 1 ack 40 ------- 0 13.0 12.0 1 202
+ 14.662363 13 1 ack 40 ------- 0 13.0 12.0 5 273
- 14.662363 13 1 ack 40 ------- 0 13.0 12.0 5 273
r 14.680563 13 1 ack 40 ------- 0 13.0 12.0 5 273
+ 15.647963 13 1 ack 40 ------- 0 13.0 12.0 6 295
- 15.647963 13 1 ack 40 ------- 0 13.0 12.0 6 295
r 15.666163 13 1 ack 40 ------- 0 13.0 12.0 6 295
+ 15.771163 13 1 ack 40 ------- 0 13.0 12.0 7 297
- 15.771163 13 1 ack 40 ------- 0 13.0 12.0 7 297
r 15.789363 13 1 ack 40 ------- 0 13.0 12.0 7 297
+ 17.249563 13 1 ack 40 ------- 0 13.0 12.0 7 326
- 17.249563 13 1 ack 40 ------- 0 13.0 12.0 7 326
r 17.267763 13 1 ack 40 ------- 0 13.0 12.0 7 326
+ 18.727963 13 1 ack 40 ------- 0 13.0 12.0 7 349
- 18.727963 13 1 ack 40 ------- 0 13.0 12.0 7 349
r 18.746163 13 1 ack 40 ------- 0 13.0 12.0 7 349
+ 19.713563 13 1 ack 40 ------- 0 13.0 12.0 10 367
- 19.713563 13 1 ack 40 ------- 0 13.0 12.0 10 367
r 19.731763 13 1 ack 40 ------- 0 13.0 12.0 10 367
