+ 8.012763 17 1 ack 40 ------- 0 17.0 16.0 0 144
- 8.012763 17 1 ack 40 ------- 0 17.0 16.0 0 144
r 8.030963 17 1 ack 40 ------- 0 17.0 16.0 0 144
+ 9.241563 17 1 ack 40 ------- 0 17.0 16.0 1 172
- 9.241563 17 1 ack 40 ------- 0 17.0 16.0 1 172
r 9.259763 17 1 ack 40 ------- 0 17.0 16.0 1 172
+ 10.719963 17 1 ack 40 ------- 0 17.0 16.0 1 205
- 10.719963 17 1 ack 40 ------- 0 17.0 16.0 1 205
r 10.738163 17 1 ack 40 ------- 0 17.0 16.0 1 205
+ 10.843163 17 1 ack 40 ------- 0 17.0 16.0 1 208
- 10.843163 17 1 ack 40 ------- 0 17.0 16.0 1 208
r 10.861363 17 1 ack 40 ------- 0 17.0 16.0 1 208
+ 13.430363 17 1 ack 40 ------- 0 17.0 16.0 4 254
- 13.430363 17 1 ack 40 ------- 0 17.0 16.0 4 254
r 13.448563 17 1 ack 40 ------- 0 17.0 16.0 4 254
+ 14.539163 17 1 ack 40 ------- 0 17.0 16.0 5 271
- 14.539163 17 1 ack 40 ------- 0 17.0 16.0 5 271
r 14.557363 17 1 ack 40 ------- 0 17.0 16.0 5 271
+ 14.785563 17 1 ack 40 ------- 0 17.0 16.0 6 276
- 14.785563 17 1 ack 40 ------- 0 17.0 16.0 6 276
r 14.803763 17 1 ack 40 ------- 0 17.0 16.0 6 276
+ 15.524763 17 1 ack 40 ------- 0 17.0 16.0 7 292
- 15.524763 17 1 ack 40 ------- 0 17.0 16.0 7 292
r 15.542963 17 1 ack 40 ------- 0 17.0 16.0 7 292
+ 15.894363 17 1 ack 40 ------- 0 17.0 16.0 8 299
- 15.894363 17 1 ack 40 ------- 0 17.0 16.0 8 299
r 15.912563 17 1 ack 40 ------- 0 17.0 16.0 8 299
+ 17.126363 17 1 ack 40 ------- 0 17.0 16.0 8 323
- 17.126363 17 1 ack 40 ------- 0 17.0 16.0 8 323
r 17.144563 17 1 ack 40 ------- 0 17.0 16.0 8 323
+ 17.372763 17 1 ack 40 ------- 0 17.0 16.0 8 328
- 17.372763 17 1 ack 40 ------- 0 17.0 16.0 8 328
r 17.390963 17 1 ack 40 ------- 0 17.0 16.0 8 328
+ 18.851163 17 1 ack 40 ------- 0 17.0 16.0 8 351
- 18.851163 17 1 ack 40 ------- 0 17.0 16.0 8 351
r 18.869363 17 1 ack 40 ------- 0 17.0 16.0 8 351
+ 19.590363 17 1 ack 40 ------- 0 17.0 16.0 11 364
- 19.590363 17 1 ack 40 ------- 0 17.0 16.0 11 364
r 19.608563 17 1 ack 40 ------- 0 17.0 16.0 11 364
