+ 1.607563 5 1 ack 40 ------- 0 5.0 4.0 0 13
- 1.607563 5 1 ack 40 ------- 0 5.0 4.0 0 13
r 1.625763 5 1 ack 40 ------- 0 5.0 4.0 0 13
+ 2.076763 5 1 ack 40 ------- 0 5.0 4.0 1 19
- 2.076763 5 1 ack 40 ------- 0 5.0 4.0 1 19
r 2.094963 5 1 ack 40 ------- 0 5.0 4.0 1 19
+ 2.323163 5 1 ack 40 ------- 0 5.0 4.0 2 25
- 2.323163 5 1 ack 40 ------- 0 5.0 4.0 2 25
r 2.341363 5 1 ack 40 ------- 0 5.0 4.0 2 25
+ 2.569563 5 1 ack 40 ------- 0 5.0 4.0 2 30
- 2.569563 5 1 ack 40 ------- 0 5.0 4.0 2 30
r 2.587763 5 1 ack 40 ------- 0 5.0 4.0 2 30
+ 2.692763 5 1 ack 40 ------- 0 5.0 4.0 2 32
- 2.692763 5 1 ack 40 ------- 0 5.0 4.0 2 32
r 2.710963 5 1 ack 40 ------- 0 5.0 4.0 2 32
+ 2.815963 5 1 ack 40 ------- 0 5.0 4.0 3 34
- 2.815963 5 1 ack 40 ------- 0 5.0 4.0 3 34
r 2.834163 5 1 ack 40 ------- 0 5.0 4.0 3 34
+ 3.065563 5 1 ack 40 ------- 0 5.0 4.0 4 40
- 3.065563 5 1 ack 40 ------- 0 5.0 4.0 4 40
r 3.083763 5 1 ack 40 ------- 0 5.0 4.0 4 40
+ 3.435163 5 1 ack 40 ------- 0 5.0 4.0 5 47
- 3.435163 5 1 ack 40 ------- 0 5.0 4.0 5 47
r 3.453363 5 1 ack 40 ------- 0 5.0 4.0 5 47
+ 3.558363 5 1 ack 40 ------- 0 5.0 4.0 6 50
- 3.558363 5 1 ack 40 ------- 0 5.0 4.0 6 50
r 3.576563 5 1 ack 40 ------- 0 5.0 4.0 6 50
+ 4.051163 5 1 ack 40 ------- 0 5.0 4.0 7 60
- 4.051163 5 1 ack 40 ------- 0 5.0 4.0 7 60
r 4.069363 5 1 ack 40 ------- 0 5.0 4.0 7 60
+ 4.547163 5 1 ack 40 ------- 0 5.0 4.0 8 73
- 4.547163 5 1 ack 40 ------- 0 5.0 4.0 8 73
r 4.565363 5 1 ack 40 ------- 0 5.0 4.0 8 73
+ 4.670363 5 1 ack 40 ------- 0 5.0 4.0 9 75
- 4.670363 5 1 ack 40 ------- 0 5.0 4.0 9 75
r 4.688563 5 1 ack 40 ------- 0 5.0 4.0 9 75
+ 5.409563 5 1 ack 40 ------- 0 5.0 4.0 10 92
- 5.409563 5 1 ack 40 ------- 0 5.0 4.0 10 92
r 5.427763 5 1 ack 40 ------- 0 5.0 4.0 10 92
+ 5.655963 5 1 ack 40 ------- 0 5.0 4.0 11 97
- 5.655963 5 1 ack 40 ------- 0 5.0 4.0 11 97
r 5.674163 5 1 ack 40 ------- 0 5.0 4.0 11 97
+ 6.148763 5 1 ack 40 ------- 0 5.0 4.0 11 106
- 6.148763 5 1 ack 40 ------- 0 5.0 4.0 11 106
r 6.166963 5 1 ack 40 ------- 0 5.0 4.0 11 106
+ 7.387163 5 1 ack 40 ------- 0 5.0 4.0 11 132
- 7.387163 5 1 ack 40 ------- 0 5.0 4.0 11 132
r 7.405363 5 1 ack 40 ------- 0 5.0 4.0 11 132
+ 8.502363 5 1 ack 40 ------- 0 5.0 4.0 11 159
- 8.502363 5 1 ack 40 ------- 0 5.0 4.0 11 159
r 8.520563 5 1 ack 40 ------- 0 5.0 4.0 11 159
+ 9.734363 5 1 ack 40 ------- 0 5.0 4.0 13 184
- 9.734363 5 1 ack 40 ------- 0 5.0 4.0 13 184
r 9.752563 5 1 ack 40 ------- 0 5.0 4.0 13 184
+ 11.335963 5 1 ack 40 ------- 0 5.0 4.0 13 216
- 11.335963 5 1 ack 40 ------- 0 5.0 4.0 13 216
r 11.354163 5 1 ack 40 ------- 0 5.0 4.0 13 216
+ 12.814363 5 1 ack 40 ------- 0 5.0 4.0 13 247
- 12.814363 5 1 ack 40 ------- 0 5.0 4.0 13 247
r 12.832563 5 1 ack 40 ------- 0 5.0 4.0 13 247
+ 16.017563 5 1 ack 40 ------- 0 5.0 4.0 17 301
- 16.017563 5 1 ack 40 ------- 0 5.0 4.0 17 301
r 16.035763 5 1 ack 40 ------- 0 5.0 4.0 17 301
+ 17.495963 5 1 ack 40 ------- 0 5.0 4.0 18 330
- 17.495963 5 1 ack 40 ------- 0 5.0 4.0 18 330
r 17.514163 5 1 ack 40 ------- 0 5.0 4.0 18 330
+ 17.619163 5 1 ack 40 ------- 0 5.0 4.0 19 332
- 17.619163 5 1 ack 40 ------- 0 5.0 4.0 19 332
r 17.637363 5 1 ack 40 ------- 0 5.0 4.0 19 332
+ 18.974363 5 1 ack 40 ------- 0 5.0 4.0 20 352
- 18.974363 5 1 ack 40 ------- 0 5.0 4.0 20 352
r 18.992563 5 1 ack 40 ------- 0 5.0 4.0 20 352
+ 19.097563 5 1 ack 40 ------- 0 5.0 4.0 21 355
- 19.097563 5 1 ack 40 ------- 0 5.0 4.0 21 355
r 19.115763 5 1 ack 40 ------- 0 5.0 4.0 21 355
