+ 4.057563 9 1 ack 40 ------- 0 9.0 8.0 0 61
- 4.057563 9 1 ack 40 ------- 0 9.0 8.0 0 61
r 4.075763 9 1 ack 40 ------- 0 9.0 8.0 0 61
+ 5.532763 9 1 ack 40 ------- 0 9.0 8.0 1 94
- 5.532763 9 1 ack 40 ------- 0 9.0 8.0 1 94
r 5.550963 9 1 ack 40 ------- 0 9.0 8.0 1 94
+ 9.364763 9 1 ack 40 ------- 0 9.0 8.0 2 175
- 9.364763 9 1 ack 40 ------- 0 9.0 8.0 2 175
r 9.382963 9 1 ack 40 ------- 0 9.0 8.0 2 175
+ 10.966363 9 1 ack 40 ------- 0 9.0 8.0 2 210
- 10.966363 9 1 ack 40 ------- 0 9.0 8.0 2 210
r 10.984563 9 1 ack 40 ------- 0 9.0 8.0 2 210
+ 15.278363 9 1 ack 40 ------- 0 9.0 8.0 4 287
- 15.278363 9 1 ack 40 ------- 0 9.0 8.0 4 287
r 15.296563 9 1 ack 40 ------- 0 9.0 8.0 4 287
+ 16.633563 9 1 ack 40 ------- 0 9.0 8.0 5 316
- 16.633563 9 1 ack 40 ------- 0 9.0 8.0 5 316
r 16.651763 9 1 ack 40 ------- 0 9.0 8.0 5 316
+ 16.879963 9 1 ack 40 ------- 0 9.0 8.0 6 320
- 16.879963 9 1 ack 40 ------- 0 9.0 8.0 6 320
r 16.898163 9 1 ack 40 ------- 0 9.0 8.0 6 320
