+ 2.822363 7 1 ack 40 ------- 0 7.0 6.0 0 35
- 2.822363 7 1 ack 40 ------- 0 7.0 6.0 0 35
r 2.840563 7 1 ack 40 ------- 0 7.0 6.0 0 35
+ 3.681563 7 1 ack 40 ------- 0 7.0 6.0 1 52
- 3.681563 7 1 ack 40 ------- 0 7.0 6.0 1 52
r 3.699763 7 1 ack 40 ------- 0 7.0 6.0 1 52
+ 3.927963 7 1 ack 40 ------- 0 7.0 6.0 2 57
- 3.927963 7 1 ack 40 ------- 0 7.0 6.0 2 57
r 3.946163 7 1 ack 40 ------- 0 7.0 6.0 2 57
+ 4.793563 7 1 ack 40 ------- 0 7.0 6.0 3 77
- 4.793563 7 1 ack 40 ------- 0 7.0 6.0 3 77
r 4.811763 7 1 ack 40 ------- 0 7.0 6.0 3 77
+ 4.916763 7 1 ack 40 ------- 0 7.0 6.0 4 80
- 4.916763 7 1 ack 40 ------- 0 7.0 6.0 4 80
r 4.934963 7 1 ack 40 ------- 0 7.0 6.0 4 80
+ 5.163163 7 1 ack 40 ------- 0 7.0 6.0 5 86
- 5.163163 7 1 ack 40 ------- 0 7.0 6.0 5 86
r 5.181363 7 1 ack 40 ------- 0 7.0 6.0 5 86
+ 5.286363 7 1 ack 40 ------- 0 7.0 6.0 6 89
- 5.286363 7 1 ack 40 ------- 0 7.0 6.0 6 89
r 5.304563 7 1 ack 40 ------- 0 7.0 6.0 6 89
+ 6.271963 7 1 ack 40 ------- 0 7.0 6.0 7 111
- 6.271963 7 1 ack 40 ------- 0 7.0 6.0 7 111
r 6.290163 7 1 ack 40 ------- 0 7.0 6.0 7 111
+ 6.398363 7 1 ack 40 ------- 0 7.0 6.0 7 115
- 6.398363 7 1 ack 40 ------- 0 7.0 6.0 7 115
r 6.416563 7 1 ack 40 ------- 0 7.0 6.0 7 115
+ 6.521563 7 1 ack 40 ------- 0 7.0 6.0 7 117
- 6.521563 7 1 ack 40 ------- 0 7.0 6.0 7 117
r 6.539763 7 1 ack 40 ------- 0 7.0 6.0 7 117
+ 6.644763 7 1 ack 40 ------- 0 7.0 6.0 7 119
- 6.644763 7 1 ack 40 ------- 0 7.0 6.0 7 119
r 6.662963 7 1 ack 40 ------- 0 7.0 6.0 7 119
+ 6.767963 7 1 ack 40 ------- 0 7.0 6.0 7 124
- 6.767963 7 1 ack 40 ------- 0 7.0 6.0 7 124
r 6.786163 7 1 ack 40 ------- 0 7.0 6.0 7 124
+ 6.894363 7 1 ack 40 ------- 0 7.0 6.0 7 125
- 6.894363 7 1 ack 40 ------- 0 7.0 6.0 7 125
r 6.912563 7 1 ack 40 ------- 0 7.0 6.0 7 125
+ 7.636763 7 1 ack 40 ------- 0 7.0 6.0 7 140
- 7.636763 7 1 ack 40 ------- 0 7.0 6.0 7 140
r 7.654963 7 1 ack 40 ------- 0 7.0 6.0 7 140
+ 7.759963 7 1 ack 40 ------- 0 7.0 6.0 7 141
- 7.759963 7 1 ack 40 ------- 0 7.0 6.0 7 141
r 7.778163 7 1 ack 40 ------- 0 7.0 6.0 7 141
+ 7.883163 7 1 ack 40 ------- 0 7.0 6.0 7 142
- 7.883163 7 1 ack 40 ------- 0 7.0 6.0 7 142
r 7.901363 7 1 ack 40 ------- 0 7.0 6.0 7 142
+ 8.129563 7 1 ack 40 ------- 0 7.0 6.0 12 150
- 8.129563 7 1 ack 40 ------- 0 7.0 6.0 12 150
r 8.147763 7 1 ack 40 ------- 0 7.0 6.0 12 150
+ 9.487963 7 1 ack 40 ------- 0 7.0 6.0 14 178
- 9.487963 7 1 ack 40 ------- 0 7.0 6.0 14 178
r 9.506163 7 1 ack 40 ------- 0 7.0 6.0 14 178
+ 11.089563 7 1 ack 40 ------- 0 7.0 6.0 14 212
- 11.089563 7 1 ack 40 ------- 0 7.0 6.0 14 212
r 11.107763 7 1 ack 40 ------- 0 7.0 6.0 14 212
+ 11.212763 7 1 ack 40 ------- 0 7.0 6.0 14 214
- 11.212763 7 1 ack 40 ------- 0 7.0 6.0 14 214
r 11.230963 7 1 ack 40 ------- 0 7.0 6.0 14 214
+ 12.567963 7 1 ack 40 ------- 0 7.0 6.0 14 245
- 12.567963 7 1 ack 40 ------- 0 7.0 6.0 14 245
r 12.586163 7 1 ack 40 ------- 0 7.0 6.0 14 245
+ 12.691163 7 1 ack 40 ------- 0 7.0 6.0 14 246
- 12.691163 7 1 ack 40 ------- 0 7.0 6.0 14 246
r 12.709363 7 1 ack 40 ------- 0 7.0 6.0 14 246
+ 13.676763 7 1 ack 40 ------- 0 7.0 6.0 19 259
- 13.676763 7 1 ack 40 ------- 0 7.0 6.0 19 259
r 13.694963 7 1 ack 40 ------- 0 7.0 6.0 19 259
+ 14.908763 7 1 ack 40 ------- 0 7.0 6.0 20 279
- 14.908763 7 1 ack 40 ------- 0 7.0 6.0 20 279
r 14.926963 7 1 ack 40 ------- 0 7.0 6.0 20 279
+ 15.031963 7 1 ack 40 ------- 0 7.0 6.0 21 281
- 15.031963 7 1 ack 40 ------- 0 7.0 6.0 21 281
r 15.050163 7 1 ack 40 ------- 0 7.0 6.0 21 281
+ 16.140763 7 1 ack 40 ------- 0 7.0 6.0 22 304
- 16.140763 7 1 ack 40 ------- 0 7.0 6.0 22 304
r 16.158963 7 1 ack 40 ------- 0 7.0 6.0 22 304
+ 16.263963 7 1 ack 40 ------- 0 7.0 6.0 23 307
- 16.263963 7 1 ack 40 ------- 0 7.0 6.0 23 307
r 16.282163 7 1 ack 40 ------- 0 7.0 6.0 23 307
+ 17.742363 7 1 ack 40 ------- 0 7.0 6.0 23 334
- 17.742363 7 1 ack 40 ------- 0 7.0 6.0 23 334
r 17.760563 7 1 ack 40 ------- 0 7.0 6.0 23 334
+ 17.865563 7 1 ack 40 ------- 0 7.0 6.0 23 336
- 17.865563 7 1 ack 40 ------- 0 7.0 6.0 23 336
r 17.883763 7 1 ack 40 ------- 0 7.0 6.0 23 336
+ 19.220763 7 1 ack 40 ------- 0 7.0 6.0 23 359
- 19.220763 7 1 ack 40 ------- 0 7.0 6.0 23 359
r 19.238963 7 1 ack 40 ------- 0 7.0 6.0 23 359
+ 19.343963 7 1 ack 40 ------- 0 7.0 6.0 23 360
- 19.343963 7 1 ack 40 ------- 0 7.0 6.0 23 360
r 19.362163 7 1 ack 40 ------- 0 7.0 6.0 23 360
