+ 1.295363 3 1 ack 40 ------- 0 3.0 2.0 0 1
- 1.295363 3 1 ack 40 ------- 0 3.0 2.0 0 1
r 1.313563 3 1 ack 40 ------- 0 3.0 2.0 0 1
+ 1.764563 3 1 ack 40 ------- 0 3.0 2.0 1 5
- 1.764563 3 1 ack 40 ------- 0 3.0 2.0 1 5
r 1.782763 3 1 ack 40 ------- 0 3.0 2.0 1 5
+ 1.887763 3 1 ack 40 ------- 0 3.0 2.0 2 8
- 1.887763 3 1 ack 40 ------- 0 3.0 2.0 2 8
r 1.905963 3 1 ack 40 ------- 0 3.0 2.0 2 8
+ 2.094563 3 1 ack 40 ------- 0 3.0 2.0 2 10
- 2.094563 3 1 ack 40 ------- 0 3.0 2.0 2 10
r 2.112763 3 1 ack 40 ------- 0 3.0 2.0 2 10
+ 2.233763 3 1 ack 40 ------- 0 3.0 2.0 2 12
- 2.233763 3 1 ack 40 ------- 0 3.0 2.0 2 12
r 2.251963 3 1 ack 40 ------- 0 3.0 2.0 2 12
+ 2.356963 3 1 ack 40 ------- 0 3.0 2.0 3 14
- 2.356963 3 1 ack 40 ------- 0 3.0 2.0 3 14
r 2.375163 3 1 ack 40 ------- 0 3.0 2.0 3 14
+ 2.480163 3 1 ack 40 ------- 0 3.0 2.0 4 15
- 2.480163 3 1 ack 40 ------- 0 3.0 2.0 4 15
r 2.498363 3 1 ack 40 ------- 0 3.0 2.0 4 15
+ 2.603363 3 1 ack 40 ------- 0 3.0 2.0 5 17
- 2.603363 3 1 ack 40 ------- 0 3.0 2.0 5 17
r 2.621563 3 1 ack 40 ------- 0 3.0 2.0 5 17
+ 2.726563 3 1 ack 40 ------- 0 3.0 2.0 6 19
- 2.726563 3 1 ack 40 ------- 0 3.0 2.0 6 19
r 2.744763 3 1 ack 40 ------- 0 3.0 2.0 6 19
+ 2.949363 3 1 ack 40 ------- 0 3.0 2.0 7 21
- 2.949363 3 1 ack 40 ------- 0 3.0 2.0 7 21
r 2.967563 3 1 ack 40 ------- 0 3.0 2.0 7 21
+ 3.072563 3 1 ack 40 ------- 0 3.0 2.0 8 24
- 3.072563 3 1 ack 40 ------- 0 3.0 2.0 8 24
r 3.090763 3 1 ack 40 ------- 0 3.0 2.0 8 24
+ 3.195763 3 1 ack 40 ------- 0 3.0 2.0 9 26
- 3.195763 3 1 ack 40 ------- 0 3.0 2.0 9 26
r 3.213963 3 1 ack 40 ------- 0 3.0 2.0 9 26
+ 3.418563 3 1 ack 40 ------- 0 3.0 2.0 10 28
- 3.418563 3 1 ack 40 ------- 0 3.0 2.0 10 28
r 3.436763 3 1 ack 40 ------- 0 3.0 2.0 10 28
+ 3.541763 3 1 ack 40 ------- 0 3.0 2.0 11 30
- 3.541763 3 1 ack 40 ------- 0 3.0 2.0 11 30
r 3.559963 3 1 ack 40 ------- 0 3.0 2.0 11 30
+ 3.664963 3 1 ack 40 ------- 0 3.0 2.0 12 32
- 3.664963 3 1 ack 40 ------- 0 3.0 2.0 12 32
r 3.683163 3 1 ack 40 ------- 0 3.0 2.0 12 32
+ 3.788163 3 1 ack 40 ------- 0 3.0 2.0 13 35
- 3.788163 3 1 ack 40 ------- 0 3.0 2.0 13 35
r 3.806363 3 1 ack 40 ------- 0 3.0 2.0 13 35
+ 3.911363 3 1 ack 40 ------- 0 3.0 2.0 14 37
- 3.911363 3 1 ack 40 ------- 0 3.0 2.0 14 37
r 3.929563 3 1 ack 40 ------- 0 3.0 2.0 14 37
+ 4.034563 3 1 ack 40 ------- 0 3.0 2.0 15 39
- 4.034563 3 1 ack 40 ------- 0 3.0 2.0 15 39
r 4.052763 3 1 ack 40 ------- 0 3.0 2.0 15 39
+ 4.157763 3 1 ack 40 ------- 0 3.0 2.0 16 41
- 4.157763 3 1 ack 40 ------- 0 3.0 2.0 16 41
r 4.175963 3 1 ack 40 ------- 0 3.0 2.0 16 41
+ 4.280963 3 1 ack 40 ------- 0 3.0 2.0 17 43
- 4.280963 3 1 ack 40 ------- 0 3.0 2.0 17 43
r 4.299163 3 1 ack 40 ------- 0 3.0 2.0 17 43
+ 4.404163 3 1 ack 40 ------- 0 3.0 2.0 18 46
- 4.404163 3 1 ack 40 ------- 0 3.0 2.0 18 46
r 4.422363 3 1 ack 40 ------- 0 3.0 2.0 18 46
+ 4.527363 3 1 ack 40 ------- 0 3.0 2.0 19 48
- 4.527363 3 1 ack 40 ------- 0 3.0 2.0 19 48
r 4.545563 3 1 ack 40 ------- 0 3.0 2.0 19 48
+ 4.650563 3 1 ack 40 ------- 0 3.0 2.0 20 50
- 4.650563 3 1 ack 40 ------- 0 3.0 2.0 20 50
r 4.668763 3 1 ack 40 ------- 0 3.0 2.0 20 50
+ 4.773763 3 1 ack 40 ------- 0 3.0 2.0 21 52
- 4.773763 3 1 ack 40 ------- 0 3.0 2.0 21 52
r 4.791963 3 1 ack 40 ------- 0 3.0 2.0 21 52
+ 4.896963 3 1 ack 40 ------- 0 3.0 2.0 22 54
- 4.896963 3 1 ack 40 ------- 0 3.0 2.0 22 54
r 4.915163 3 1 ack 40 ------- 0 3.0 2.0 22 54
+ 5.020163 3 1 ack 40 ------- 0 3.0 2.0 23 56
- 5.020163 3 1 ack 40 ------- 0 3.0 2.0 23 56
r 5.038363 3 1 ack 40 ------- 0 3.0 2.0 23 56
+ 5.143363 3 1 ack 40 ------- 0 3.0 2.0 24 59
- 5.143363 3 1 ack 40 ------- 0 3.0 2.0 24 59
r 5.161563 3 1 ack 40 ------- 0 3.0 2.0 24 59
+ 5.266563 3 1 ack 40 ------- 0 3.0 2.0 25 61
- 5.266563 3 1 ack 40 ------- 0 3.0 2.0 25 61
r 5.284763 3 1 ack 40 ------- 0 3.0 2.0 25 61
+ 5.389763 3 1 ack 40 ------- 0 3.0 2.0 26 63
- 5.389763 3 1 ack 40 ------- 0 3.0 2.0 26 63
r 5.407963 3 1 ack 40 ------- 0 3.0 2.0 26 63
+ 5.512963 3 1 ack 40 ------- 0 3.0 2.0 27 65
- 5.512963 3 1 ack 40 ------- 0 3.0 2.0 27 65
r 5.531163 3 1 ack 40 ------- 0 3.0 2.0 27 65
+ 5.636163 3 1 ack 40 ------- 0 3.0 2.0 28 67
- 5.636163 3 1 ack 40 ------- 0 3.0 2.0 28 67
r 5.654363 3 1 ack 40 ------- 0 3.0 2.0 28 67
+ 5.759363 3 1 ack 40 ------- 0 3.0 2.0 29 69
- 5.759363 3 1 ack 40 ------- 0 3.0 2.0 29 69
r 5.777563 3 1 ack 40 ------- 0 3.0 2.0 29 69
+ 5.882563 3 1 ack 40 ------- 0 3.0 2.0 30 71
- 5.882563 3 1 ack 40 ------- 0 3.0 2.0 30 71
r 5.900763 3 1 ack 40 ------- 0 3.0 2.0 30 71
+ 6.005763 3 1 ack 40 ------- 0 3.0 2.0 31 73
- 6.005763 3 1 ack 40 ------- 0 3.0 2.0 31 73
r 6.023963 3 1 ack 40 ------- 0 3.0 2.0 31 73
+ 6.128963 3 1 ack 40 ------- 0 3.0 2.0 32 76
- 6.128963 3 1 ack 40 ------- 0 3.0 2.0 32 76
r 6.147163 3 1 ack 40 ------- 0 3.0 2.0 32 76
+ 6.252163 3 1 ack 40 ------- 0 3.0 2.0 33 78
- 6.252163 3 1 ack 40 ------- 0 3.0 2.0 33 78
r 6.270363 3 1 ack 40 ------- 0 3.0 2.0 33 78
+ 6.375363 3 1 ack 40 ------- 0 3.0 2.0 34 80
- 6.375363 3 1 ack 40 ------- 0 3.0 2.0 34 80
r 6.393563 3 1 ack 40 ------- 0 3.0 2.0 34 80
+ 6.498563 3 1 ack 40 ------- 0 3.0 2.0 35 82
- 6.498563 3 1 ack 40 ------- 0 3.0 2.0 35 82
r 6.516763 3 1 ack 40 ------- 0 3.0 2.0 35 82
+ 6.621763 3 1 ack 40 ------- 0 3.0 2.0 36 84
- 6.621763 3 1 ack 40 ------- 0 3.0 2.0 36 84
r 6.639963 3 1 ack 40 ------- 0 3.0 2.0 36 84
+ 6.744963 3 1 ack 40 ------- 0 3.0 2.0 37 86
- 6.744963 3 1 ack 40 ------- 0 3.0 2.0 37 86
r 6.763163 3 1 ack 40 ------- 0 3.0 2.0 37 86
+ 6.868163 3 1 ack 40 ------- 0 3.0 2.0 38 88
- 6.868163 3 1 ack 40 ------- 0 3.0 2.0 38 88
r 6.886363 3 1 ack 40 ------- 0 3.0 2.0 38 88
+ 6.991363 3 1 ack 40 ------- 0 3.0 2.0 39 90
- 6.991363 3 1 ack 40 ------- 0 3.0 2.0 39 90
r 7.009563 3 1 ack 40 ------- 0 3.0 2.0 39 90
+ 7.114563 3 1 ack 40 ------- 0 3.0 2.0 40 93
- 7.114563 3 1 ack 40 ------- 0 3.0 2.0 40 93
r 7.132763 3 1 ack 40 ------- 0 3.0 2.0 40 93
+ 7.237763 3 1 ack 40 ------- 0 3.0 2.0 41 95
- 7.237763 3 1 ack 40 ------- 0 3.0 2.0 41 95
r 7.255963 3 1 ack 40 ------- 0 3.0 2.0 41 95
+ 7.360963 3 1 ack 40 ------- 0 3.0 2.0 42 97
- 7.360963 3 1 ack 40 ------- 0 3.0 2.0 42 97
r 7.379163 3 1 ack 40 ------- 0 3.0 2.0 42 97
+ 7.484163 3 1 ack 40 ------- 0 3.0 2.0 43 99
- 7.484163 3 1 ack 40 ------- 0 3.0 2.0 43 99
r 7.502363 3 1 ack 40 ------- 0 3.0 2.0 43 99
+ 7.607363 3 1 ack 40 ------- 0 3.0 2.0 44 101
- 7.607363 3 1 ack 40 ------- 0 3.0 2.0 44 101
r 7.625563 3 1 ack 40 ------- 0 3.0 2.0 44 101
+ 7.730563 3 1 ack 40 ------- 0 3.0 2.0 45 103
- 7.730563 3 1 ack 40 ------- 0 3.0 2.0 45 103
r 7.748763 3 1 ack 40 ------- 0 3.0 2.0 45 103
+ 7.853763 3 1 ack 40 ------- 0 3.0 2.0 46 105
- 7.853763 3 1 ack 40 ------- 0 3.0 2.0 46 105
r 7.871963 3 1 ack 40 ------- 0 3.0 2.0 46 105
+ 7.976963 3 1 ack 40 ------- 0 3.0 2.0 47 107
- 7.976963 3 1 ack 40 ------- 0 3.0 2.0 47 107
r 7.995163 3 1 ack 40 ------- 0 3.0 2.0 47 107
+ 8.100163 3 1 ack 40 ------- 0 3.0 2.0 48 109
- 8.100163 3 1 ack 40 ------- 0 3.0 2.0 48 109
r 8.118363 3 1 ack 40 ------- 0 3.0 2.0 48 109
+ 8.223363 3 1 ack 40 ------- 0 3.0 2.0 49 111
- 8.223363 3 1 ack 40 ------- 0 3.0 2.0 49 111
r 8.241563 3 1 ack 40 ------- 0 3.0 2.0 49 111
+ 8.346563 3 1 ack 40 ------- 0 3.0 2.0 50 114
- 8.346563 3 1 ack 40 ------- 0 3.0 2.0 50 114
r 8.364763 3 1 ack 40 ------- 0 3.0 2.0 50 114
+ 8.469763 3 1 ack 40 ------- 0 3.0 2.0 51 116
- 8.469763 3 1 ack 40 ------- 0 3.0 2.0 51 116
r 8.487963 3 1 ack 40 ------- 0 3.0 2.0 51 116
+ 8.592963 3 1 ack 40 ------- 0 3.0 2.0 52 118
- 8.592963 3 1 ack 40 ------- 0 3.0 2.0 52 118
r 8.611163 3 1 ack 40 ------- 0 3.0 2.0 52 118
+ 8.716163 3 1 ack 40 ------- 0 3.0 2.0 53 120
- 8.716163 3 1 ack 40 ------- 0 3.0 2.0 53 120
r 8.734363 3 1 ack 40 ------- 0 3.0 2.0 53 120
+ 8.839363 3 1 ack 40 ------- 0 3.0 2.0 54 122
- 8.839363 3 1 ack 40 ------- 0 3.0 2.0 54 122
r 8.857563 3 1 ack 40 ------- 0 3.0 2.0 54 122
+ 8.962563 3 1 ack 40 ------- 0 3.0 2.0 55 124
- 8.962563 3 1 ack 40 ------- 0 3.0 2.0 55 124
r 8.980763 3 1 ack 40 ------- 0 3.0 2.0 55 124
+ 9.085763 3 1 ack 40 ------- 0 3.0 2.0 56 126
- 9.085763 3 1 ack 40 ------- 0 3.0 2.0 56 126
r 9.103963 3 1 ack 40 ------- 0 3.0 2.0 56 126
+ 9.208963 3 1 ack 40 ------- 0 3.0 2.0 57 128
- 9.208963 3 1 ack 40 ------- 0 3.0 2.0 57 128
r 9.227163 3 1 ack 40 ------- 0 3.0 2.0 57 128
+ 9.332163 3 1 ack 40 ------- 0 3.0 2.0 58 130
- 9.332163 3 1 ack 40 ------- 0 3.0 2.0 58 130
r 9.350363 3 1 ack 40 ------- 0 3.0 2.0 58 130
+ 9.455363 3 1 ack 40 ------- 0 3.0 2.0 59 132
- 9.455363 3 1 ack 40 ------- 0 3.0 2.0 59 132
r 9.473563 3 1 ack 40 ------- 0 3.0 2.0 59 132
+ 9.578563 3 1 ack 40 ------- 0 3.0 2.0 60 135
- 9.578563 3 1 ack 40 ------- 0 3.0 2.0 60 135
r 9.596763 3 1 ack 40 ------- 0 3.0 2.0 60 135
+ 9.701763 3 1 ack 40 ------- 0 3.0 2.0 61 137
- 9.701763 3 1 ack 40 ------- 0 3.0 2.0 61 137
r 9.719963 3 1 ack 40 ------- 0 3.0 2.0 61 137
+ 9.824963 3 1 ack 40 ------- 0 3.0 2.0 62 139
- 9.824963 3 1 ack 40 ------- 0 3.0 2.0 62 139
r 9.843163 3 1 ack 40 ------- 0 3.0 2.0 62 139
+ 9.948163 3 1 ack 40 ------- 0 3.0 2.0 63 141
- 9.948163 3 1 ack 40 ------- 0 3.0 2.0 63 141
r 9.966363 3 1 ack 40 ------- 0 3.0 2.0 63 141
+ 10.071363 3 1 ack 40 ------- 0 3.0 2.0 64 143
- 10.071363 3 1 ack 40 ------- 0 3.0 2.0 64 143
r 10.089563 3 1 ack 40 ------- 0 3.0 2.0 64 143
+ 10.194563 3 1 ack 40 ------- 0 3.0 2.0 65 145
- 10.194563 3 1 ack 40 ------- 0 3.0 2.0 65 145
r 10.212763 3 1 ack 40 ------- 0 3.0 2.0 65 145
+ 10.317763 3 1 ack 40 ------- 0 3.0 2.0 66 147
- 10.317763 3 1 ack 40 ------- 0 3.0 2.0 66 147
r 10.335963 3 1 ack 40 ------- 0 3.0 2.0 66 147
+ 10.440963 3 1 ack 40 ------- 0 3.0 2.0 67 149
- 10.440963 3 1 ack 40 ------- 0 3.0 2.0 67 149
r 10.459163 3 1 ack 40 ------- 0 3.0 2.0 67 149
+ 10.564163 3 1 ack 40 ------- 0 3.0 2.0 68 151
- 10.564163 3 1 ack 40 ------- 0 3.0 2.0 68 151
r 10.582363 3 1 ack 40 ------- 0 3.0 2.0 68 151
+ 10.687363 3 1 ack 40 ------- 0 3.0 2.0 69 153
- 10.687363 3 1 ack 40 ------- 0 3.0 2.0 69 153
r 10.705563 3 1 ack 40 ------- 0 3.0 2.0 69 153
+ 10.810563 3 1 ack 40 ------- 0 3.0 2.0 70 155
- 10.810563 3 1 ack 40 ------- 0 3.0 2.0 70 155
r 10.828763 3 1 ack 40 ------- 0 3.0 2.0 70 155
+ 10.933763 3 1 ack 40 ------- 0 3.0 2.0 71 157
- 10.933763 3 1 ack 40 ------- 0 3.0 2.0 71 157
r 10.951963 3 1 ack 40 ------- 0 3.0 2.0 71 157
+ 11.056963 3 1 ack 40 ------- 0 3.0 2.0 72 160
- 11.056963 3 1 ack 40 ------- 0 3.0 2.0 72 160
r 11.075163 3 1 ack 40 ------- 0 3.0 2.0 72 160
+ 11.180163 3 1 ack 40 ------- 0 3.0 2.0 73 162
- 11.180163 3 1 ack 40 ------- 0 3.0 2.0 73 162
r 11.198363 3 1 ack 40 ------- 0 3.0 2.0 73 162
+ 11.303363 3 1 ack 40 ------- 0 3.0 2.0 74 164
- 11.303363 3 1 ack 40 ------- 0 3.0 2.0 74 164
r 11.321563 3 1 ack 40 ------- 0 3.0 2.0 74 164
+ 11.426563 3 1 ack 40 ------- 0 3.0 2.0 75 166
- 11.426563 3 1 ack 40 ------- 0 3.0 2.0 75 166
r 11.444763 3 1 ack 40 ------- 0 3.0 2.0 75 166
+ 11.549763 3 1 ack 40 ------- 0 3.0 2.0 76 168
- 11.549763 3 1 ack 40 ------- 0 3.0 2.0 76 168
r 11.567963 3 1 ack 40 ------- 0 3.0 2.0 76 168
+ 11.672963 3 1 ack 40 ------- 0 3.0 2.0 77 170
- 11.672963 3 1 ack 40 ------- 0 3.0 2.0 77 170
r 11.691163 3 1 ack 40 ------- 0 3.0 2.0 77 170
+ 11.796163 3 1 ack 40 ------- 0 3.0 2.0 78 172
- 11.796163 3 1 ack 40 ------- 0 3.0 2.0 78 172
r 11.814363 3 1 ack 40 ------- 0 3.0 2.0 78 172
+ 11.919363 3 1 ack 40 ------- 0 3.0 2.0 79 174
- 11.919363 3 1 ack 40 ------- 0 3.0 2.0 79 174
r 11.937563 3 1 ack 40 ------- 0 3.0 2.0 79 174
+ 12.042563 3 1 ack 40 ------- 0 3.0 2.0 80 176
- 12.042563 3 1 ack 40 ------- 0 3.0 2.0 80 176
r 12.060763 3 1 ack 40 ------- 0 3.0 2.0 80 176
+ 12.165763 3 1 ack 40 ------- 0 3.0 2.0 81 178
- 12.165763 3 1 ack 40 ------- 0 3.0 2.0 81 178
r 12.183963 3 1 ack 40 ------- 0 3.0 2.0 81 178
+ 12.288963 3 1 ack 40 ------- 0 3.0 2.0 82 180
- 12.288963 3 1 ack 40 ------- 0 3.0 2.0 82 180
r 12.307163 3 1 ack 40 ------- 0 3.0 2.0 82 180
+ 12.412163 3 1 ack 40 ------- 0 3.0 2.0 83 182
- 12.412163 3 1 ack 40 ------- 0 3.0 2.0 83 182
r 12.430363 3 1 ack 40 ------- 0 3.0 2.0 83 182
+ 12.535363 3 1 ack 40 ------- 0 3.0 2.0 84 185
- 12.535363 3 1 ack 40 ------- 0 3.0 2.0 84 185
r 12.553563 3 1 ack 40 ------- 0 3.0 2.0 84 185
+ 12.658563 3 1 ack 40 ------- 0 3.0 2.0 85 187
- 12.658563 3 1 ack 40 ------- 0 3.0 2.0 85 187
r 12.676763 3 1 ack 40 ------- 0 3.0 2.0 85 187
+ 12.781763 3 1 ack 40 ------- 0 3.0 2.0 86 189
- 12.781763 3 1 ack 40 ------- 0 3.0 2.0 86 189
r 12.799963 3 1 ack 40 ------- 0 3.0 2.0 86 189
+ 12.904963 3 1 ack 40 ------- 0 3.0 2.0 87 191
- 12.904963 3 1 ack 40 ------- 0 3.0 2.0 87 191
r 12.923163 3 1 ack 40 ------- 0 3.0 2.0 87 191
+ 13.028163 3 1 ack 40 ------- 0 3.0 2.0 88 193
- 13.028163 3 1 ack 40 ------- 0 3.0 2.0 88 193
r 13.046363 3 1 ack 40 ------- 0 3.0 2.0 88 193
+ 13.151363 3 1 ack 40 ------- 0 3.0 2.0 89 195
- 13.151363 3 1 ack 40 ------- 0 3.0 2.0 89 195
r 13.169563 3 1 ack 40 ------- 0 3.0 2.0 89 195
+ 13.274563 3 1 ack 40 ------- 0 3.0 2.0 90 197
- 13.274563 3 1 ack 40 ------- 0 3.0 2.0 90 197
r 13.292763 3 1 ack 40 ------- 0 3.0 2.0 90 197
+ 13.397763 3 1 ack 40 ------- 0 3.0 2.0 91 199
- 13.397763 3 1 ack 40 ------- 0 3.0 2.0 91 199
r 13.415963 3 1 ack 40 ------- 0 3.0 2.0 91 199
+ 13.520963 3 1 ack 40 ------- 0 3.0 2.0 92 201
- 13.520963 3 1 ack 40 ------- 0 3.0 2.0 92 201
r 13.539163 3 1 ack 40 ------- 0 3.0 2.0 92 201
+ 13.644163 3 1 ack 40 ------- 0 3.0 2.0 93 203
- 13.644163 3 1 ack 40 ------- 0 3.0 2.0 93 203
r 13.662363 3 1 ack 40 ------- 0 3.0 2.0 93 203
+ 13.767363 3 1 ack 40 ------- 0 3.0 2.0 94 205
- 13.767363 3 1 ack 40 ------- 0 3.0 2.0 94 205
r 13.785563 3 1 ack 40 ------- 0 3.0 2.0 94 205
+ 13.890563 3 1 ack 40 ------- 0 3.0 2.0 95 207
- 13.890563 3 1 ack 40 ------- 0 3.0 2.0 95 207
r 13.908763 3 1 ack 40 ------- 0 3.0 2.0 95 207
+ 14.013763 3 1 ack 40 ------- 0 3.0 2.0 95 209
- 14.013763 3 1 ack 40 ------- 0 3.0 2.0 95 209
r 14.031963 3 1 ack 40 ------- 0 3.0 2.0 95 209
+ 14.136963 3 1 ack 40 ------- 0 3.0 2.0 95 211
- 14.136963 3 1 ack 40 ------- 0 3.0 2.0 95 211
r 14.155163 3 1 ack 40 ------- 0 3.0 2.0 95 211
+ 14.260163 3 1 ack 40 ------- 0 3.0 2.0 95 213
- 14.260163 3 1 ack 40 ------- 0 3.0 2.0 95 213
r 14.278363 3 1 ack 40 ------- 0 3.0 2.0 95 213
+ 14.383363 3 1 ack 40 ------- 0 3.0 2.0 95 215
- 14.383363 3 1 ack 40 ------- 0 3.0 2.0 95 215
r 14.401563 3 1 ack 40 ------- 0 3.0 2.0 95 215
+ 14.506563 3 1 ack 40 ------- 0 3.0 2.0 95 216
- 14.506563 3 1 ack 40 ------- 0 3.0 2.0 95 216
r 14.524763 3 1 ack 40 ------- 0 3.0 2.0 95 216
+ 14.629763 3 1 ack 40 ------- 0 3.0 2.0 95 217
- 14.629763 3 1 ack 40 ------- 0 3.0 2.0 95 217
r 14.647963 3 1 ack 40 ------- 0 3.0 2.0 95 217
+ 14.752963 3 1 ack 40 ------- 0 3.0 2.0 95 218
- 14.752963 3 1 ack 40 ------- 0 3.0 2.0 95 218
r 14.771163 3 1 ack 40 ------- 0 3.0 2.0 95 218
+ 14.876163 3 1 ack 40 ------- 0 3.0 2.0 95 219
- 14.876163 3 1 ack 40 ------- 0 3.0 2.0 95 219
r 14.894363 3 1 ack 40 ------- 0 3.0 2.0 95 219
+ 14.999363 3 1 ack 40 ------- 0 3.0 2.0 95 220
- 14.999363 3 1 ack 40 ------- 0 3.0 2.0 95 220
r 15.017563 3 1 ack 40 ------- 0 3.0 2.0 95 220
+ 15.122563 3 1 ack 40 ------- 0 3.0 2.0 95 221
- 15.122563 3 1 ack 40 ------- 0 3.0 2.0 95 221
r 15.140763 3 1 ack 40 ------- 0 3.0 2.0 95 221
+ 15.245763 3 1 ack 40 ------- 0 3.0 2.0 95 222
- 15.245763 3 1 ack 40 ------- 0 3.0 2.0 95 222
r 15.263963 3 1 ack 40 ------- 0 3.0 2.0 95 222
+ 15.368963 3 1 ack 40 ------- 0 3.0 2.0 95 223
- 15.368963 3 1 ack 40 ------- 0 3.0 2.0 95 223
r 15.387163 3 1 ack 40 ------- 0 3.0 2.0 95 223
+ 15.492163 3 1 ack 40 ------- 0 3.0 2.0 95 224
- 15.492163 3 1 ack 40 ------- 0 3.0 2.0 95 224
r 15.510363 3 1 ack 40 ------- 0 3.0 2.0 95 224
+ 15.615363 3 1 ack 40 ------- 0 3.0 2.0 95 225
- 15.615363 3 1 ack 40 ------- 0 3.0 2.0 95 225
r 15.633563 3 1 ack 40 ------- 0 3.0 2.0 95 225
+ 15.738563 3 1 ack 40 ------- 0 3.0 2.0 110 226
- 15.738563 3 1 ack 40 ------- 0 3.0 2.0 110 226
r 15.756763 3 1 ack 40 ------- 0 3.0 2.0 110 226
+ 16.207763 3 1 ack 40 ------- 0 3.0 2.0 111 229
- 16.207763 3 1 ack 40 ------- 0 3.0 2.0 111 229
r 16.225963 3 1 ack 40 ------- 0 3.0 2.0 111 229
+ 16.330963 3 1 ack 40 ------- 0 3.0 2.0 112 232
- 16.330963 3 1 ack 40 ------- 0 3.0 2.0 112 232
r 16.349163 3 1 ack 40 ------- 0 3.0 2.0 112 232
+ 16.676963 3 1 ack 40 ------- 0 3.0 2.0 113 235
- 16.676963 3 1 ack 40 ------- 0 3.0 2.0 113 235
r 16.695163 3 1 ack 40 ------- 0 3.0 2.0 113 235
+ 16.800163 3 1 ack 40 ------- 0 3.0 2.0 114 238
- 16.800163 3 1 ack 40 ------- 0 3.0 2.0 114 238
r 16.818363 3 1 ack 40 ------- 0 3.0 2.0 114 238
+ 16.923363 3 1 ack 40 ------- 0 3.0 2.0 115 241
- 16.923363 3 1 ack 40 ------- 0 3.0 2.0 115 241
r 16.941563 3 1 ack 40 ------- 0 3.0 2.0 115 241
+ 17.046563 3 1 ack 40 ------- 0 3.0 2.0 116 243
- 17.046563 3 1 ack 40 ------- 0 3.0 2.0 116 243
r 17.064763 3 1 ack 40 ------- 0 3.0 2.0 116 243
+ 17.169763 3 1 ack 40 ------- 0 3.0 2.0 117 245
- 17.169763 3 1 ack 40 ------- 0 3.0 2.0 117 245
r 17.187963 3 1 ack 40 ------- 0 3.0 2.0 117 245
+ 17.292963 3 1 ack 40 ------- 0 3.0 2.0 118 247
- 17.292963 3 1 ack 40 ------- 0 3.0 2.0 118 247
r 17.311163 3 1 ack 40 ------- 0 3.0 2.0 118 247
+ 17.416163 3 1 ack 40 ------- 0 3.0 2.0 119 249
- 17.416163 3 1 ack 40 ------- 0 3.0 2.0 119 249
r 17.434363 3 1 ack 40 ------- 0 3.0 2.0 119 249
+ 17.539363 3 1 ack 40 ------- 0 3.0 2.0 120 251
- 17.539363 3 1 ack 40 ------- 0 3.0 2.0 120 251
r 17.557563 3 1 ack 40 ------- 0 3.0 2.0 120 251
+ 17.662563 3 1 ack 40 ------- 0 3.0 2.0 121 253
- 17.662563 3 1 ack 40 ------- 0 3.0 2.0 121 253
r 17.680763 3 1 ack 40 ------- 0 3.0 2.0 121 253
+ 17.785763 3 1 ack 40 ------- 0 3.0 2.0 122 256
- 17.785763 3 1 ack 40 ------- 0 3.0 2.0 122 256
r 17.803963 3 1 ack 40 ------- 0 3.0 2.0 122 256
+ 17.908963 3 1 ack 40 ------- 0 3.0 2.0 123 258
- 17.908963 3 1 ack 40 ------- 0 3.0 2.0 123 258
r 17.927163 3 1 ack 40 ------- 0 3.0 2.0 123 258
+ 18.032163 3 1 ack 40 ------- 0 3.0 2.0 124 260
- 18.032163 3 1 ack 40 ------- 0 3.0 2.0 124 260
r 18.050363 3 1 ack 40 ------- 0 3.0 2.0 124 260
+ 18.155363 3 1 ack 40 ------- 0 3.0 2.0 125 262
- 18.155363 3 1 ack 40 ------- 0 3.0 2.0 125 262
r 18.173563 3 1 ack 40 ------- 0 3.0 2.0 125 262
+ 18.278563 3 1 ack 40 ------- 0 3.0 2.0 126 264
- 18.278563 3 1 ack 40 ------- 0 3.0 2.0 126 264
r 18.296763 3 1 ack 40 ------- 0 3.0 2.0 126 264
+ 18.401763 3 1 ack 40 ------- 0 3.0 2.0 127 266
- 18.401763 3 1 ack 40 ------- 0 3.0 2.0 127 266
r 18.419963 3 1 ack 40 ------- 0 3.0 2.0 127 266
+ 18.524963 3 1 ack 40 ------- 0 3.0 2.0 128 268
- 18.524963 3 1 ack 40 ------- 0 3.0 2.0 128 268
r 18.543163 3 1 ack 40 ------- 0 3.0 2.0 128 268
+ 18.648163 3 1 ack 40 ------- 0 3.0 2.0 129 271
- 18.648163 3 1 ack 40 ------- 0 3.0 2.0 129 271
r 18.666363 3 1 ack 40 ------- 0 3.0 2.0 129 271
+ 18.771363 3 1 ack 40 ------- 0 3.0 2.0 130 273
- 18.771363 3 1 ack 40 ------- 0 3.0 2.0 130 273
r 18.789563 3 1 ack 40 ------- 0 3.0 2.0 130 273
+ 18.894563 3 1 ack 40 ------- 0 3.0 2.0 131 275
- 18.894563 3 1 ack 40 ------- 0 3.0 2.0 131 275
r 18.912763 3 1 ack 40 ------- 0 3.0 2.0 131 275
+ 19.017763 3 1 ack 40 ------- 0 3.0 2.0 132 277
- 19.017763 3 1 ack 40 ------- 0 3.0 2.0 132 277
r 19.035963 3 1 ack 40 ------- 0 3.0 2.0 132 277
+ 19.140963 3 1 ack 40 ------- 0 3.0 2.0 133 279
- 19.140963 3 1 ack 40 ------- 0 3.0 2.0 133 279
r 19.159163 3 1 ack 40 ------- 0 3.0 2.0 133 279
+ 19.264163 3 1 ack 40 ------- 0 3.0 2.0 134 281
- 19.264163 3 1 ack 40 ------- 0 3.0 2.0 134 281
r 19.282363 3 1 ack 40 ------- 0 3.0 2.0 134 281
+ 19.387363 3 1 ack 40 ------- 0 3.0 2.0 135 283
- 19.387363 3 1 ack 40 ------- 0 3.0 2.0 135 283
r 19.405563 3 1 ack 40 ------- 0 3.0 2.0 135 283
+ 19.510563 3 1 ack 40 ------- 0 3.0 2.0 136 285
- 19.510563 3 1 ack 40 ------- 0 3.0 2.0 136 285
r 19.528763 3 1 ack 40 ------- 0 3.0 2.0 136 285
+ 19.633763 3 1 ack 40 ------- 0 3.0 2.0 137 287
- 19.633763 3 1 ack 40 ------- 0 3.0 2.0 137 287
r 19.651963 3 1 ack 40 ------- 0 3.0 2.0 137 287
+ 19.756963 3 1 ack 40 ------- 0 3.0 2.0 138 290
- 19.756963 3 1 ack 40 ------- 0 3.0 2.0 138 290
r 19.775163 3 1 ack 40 ------- 0 3.0 2.0 138 290
+ 19.880163 3 1 ack 40 ------- 0 3.0 2.0 139 292
- 19.880163 3 1 ack 40 ------- 0 3.0 2.0 139 292
r 19.898363 3 1 ack 40 ------- 0 3.0 2.0 139 292
