+ 2.16747 5 1 ack 40 ------- 0 5.0 4.0 0 7
- 2.16747 5 1 ack 40 ------- 0 5.0 4.0 0 7
r 2.18567 5 1 ack 40 ------- 0 5.0 4.0 0 7
+ 2.718122 5 1 ack 40 ------- 0 5.0 4.0 1 20
- 2.718122 5 1 ack 40 ------- 0 5.0 4.0 1 20
r 2.736322 5 1 ack 40 ------- 0 5.0 4.0 1 20
+ 2.967722 5 1 ack 40 ------- 0 5.0 4.0 2 27
- 2.967722 5 1 ack 40 ------- 0 5.0 4.0 2 27
r 2.985922 5 1 ack 40 ------- 0 5.0 4.0 2 27
+ 3.337322 5 1 ack 40 ------- 0 5.0 4.0 2 33
- 3.337322 5 1 ack 40 ------- 0 5.0 4.0 2 33
r 3.355522 5 1 ack 40 ------- 0 5.0 4.0 2 33
+ 3.583722 5 1 ack 40 ------- 0 5.0 4.0 2 38
- 3.583722 5 1 ack 40 ------- 0 5.0 4.0 2 38
r 3.601922 5 1 ack 40 ------- 0 5.0 4.0 2 38
+ 3.830122 5 1 ack 40 ------- 0 5.0 4.0 3 44
- 3.830122 5 1 ack 40 ------- 0 5.0 4.0 3 44
r 3.848322 5 1 ack 40 ------- 0 5.0 4.0 3 44
+ 4.076522 5 1 ack 40 ------- 0 5.0 4.0 4 50
- 4.076522 5 1 ack 40 ------- 0 5.0 4.0 4 50
r 4.094722 5 1 ack 40 ------- 0 5.0 4.0 4 50
+ 4.449322 5 1 ack 40 ------- 0 5.0 4.0 5 60
- 4.449322 5 1 ack 40 ------- 0 5.0 4.0 5 60
r 4.467522 5 1 ack 40 ------- 0 5.0 4.0 5 60
+ 4.695722 5 1 ack 40 ------- 0 5.0 4.0 6 65
- 4.695722 5 1 ack 40 ------- 0 5.0 4.0 6 65
r 4.713922 5 1 ack 40 ------- 0 5.0 4.0 6 65
+ 4.818922 5 1 ack 40 ------- 0 5.0 4.0 6 68
- 4.818922 5 1 ack 40 ------- 0 5.0 4.0 6 68
r 4.837122 5 1 ack 40 ------- 0 5.0 4.0 6 68
+ 5.188522 5 1 ack 40 ------- 0 5.0 4.0 6 76
- 5.188522 5 1 ack 40 ------- 0 5.0 4.0 6 76
r 5.206722 5 1 ack 40 ------- 0 5.0 4.0 6 76
+ 5.311722 5 1 ack 40 ------- 0 5.0 4.0 6 78
- 5.311722 5 1 ack 40 ------- 0 5.0 4.0 6 78
r 5.329922 5 1 ack 40 ------- 0 5.0 4.0 6 78
+ 5.558122 5 1 ack 40 ------- 0 5.0 4.0 6 81
- 5.558122 5 1 ack 40 ------- 0 5.0 4.0 6 81
r 5.576322 5 1 ack 40 ------- 0 5.0 4.0 6 81
+ 6.054122 5 1 ack 40 ------- 0 5.0 4.0 6 92
- 6.054122 5 1 ack 40 ------- 0 5.0 4.0 6 92
r 6.072322 5 1 ack 40 ------- 0 5.0 4.0 6 92
+ 6.177322 5 1 ack 40 ------- 0 5.0 4.0 6 94
- 6.177322 5 1 ack 40 ------- 0 5.0 4.0 6 94
r 6.195522 5 1 ack 40 ------- 0 5.0 4.0 6 94
+ 6.300522 5 1 ack 40 ------- 0 5.0 4.0 6 95
- 6.300522 5 1 ack 40 ------- 0 5.0 4.0 6 95
r 6.318722 5 1 ack 40 ------- 0 5.0 4.0 6 95
+ 7.412522 5 1 ack 40 ------- 0 5.0 4.0 10 113
- 7.412522 5 1 ack 40 ------- 0 5.0 4.0 10 113
r 7.430722 5 1 ack 40 ------- 0 5.0 4.0 10 113
+ 8.521322 5 1 ack 40 ------- 0 5.0 4.0 11 136
- 8.521322 5 1 ack 40 ------- 0 5.0 4.0 11 136
r 8.539522 5 1 ack 40 ------- 0 5.0 4.0 11 136
+ 8.644522 5 1 ack 40 ------- 0 5.0 4.0 12 138
- 8.644522 5 1 ack 40 ------- 0 5.0 4.0 12 138
r 8.662722 5 1 ack 40 ------- 0 5.0 4.0 12 138
+ 10.122922 5 1 ack 40 ------- 0 5.0 4.0 12 166
- 10.122922 5 1 ack 40 ------- 0 5.0 4.0 12 166
r 10.141122 5 1 ack 40 ------- 0 5.0 4.0 12 166
+ 11.478122 5 1 ack 40 ------- 0 5.0 4.0 12 189
- 11.478122 5 1 ack 40 ------- 0 5.0 4.0 12 189
r 11.496322 5 1 ack 40 ------- 0 5.0 4.0 12 189
+ 11.601322 5 1 ack 40 ------- 0 5.0 4.0 15 191
- 11.601322 5 1 ack 40 ------- 0 5.0 4.0 15 191
r 11.619522 5 1 ack 40 ------- 0 5.0 4.0 15 191
+ 12.956522 5 1 ack 40 ------- 0 5.0 4.0 15 217
- 12.956522 5 1 ack 40 ------- 0 5.0 4.0 15 217
r 12.974722 5 1 ack 40 ------- 0 5.0 4.0 15 217
+ 13.079722 5 1 ack 40 ------- 0 5.0 4.0 16 219
- 13.079722 5 1 ack 40 ------- 0 5.0 4.0 16 219
r 13.097922 5 1 ack 40 ------- 0 5.0 4.0 16 219
+ 13.202922 5 1 ack 40 ------- 0 5.0 4.0 17 220
- 13.202922 5 1 ack 40 ------- 0 5.0 4.0 17 220
r 13.221122 5 1 ack 40 ------- 0 5.0 4.0 17 220
+ 14.558122 5 1 ack 40 ------- 0 5.0 4.0 17 247
- 14.558122 5 1 ack 40 ------- 0 5.0 4.0 17 247
r 14.576322 5 1 ack 40 ------- 0 5.0 4.0 17 247
+ 16.036522 5 1 ack 40 ------- 0 5.0 4.0 17 270
- 16.036522 5 1 ack 40 ------- 0 5.0 4.0 17 270
r 16.054722 5 1 ack 40 ------- 0 5.0 4.0 17 270
+ 17.022122 5 1 ack 40 ------- 0 5.0 4.0 20 288
- 17.022122 5 1 ack 40 ------- 0 5.0 4.0 20 288
r 17.040322 5 1 ack 40 ------- 0 5.0 4.0 20 288
+ 17.391722 5 1 ack 40 ------- 0 5.0 4.0 20 297
- 17.391722 5 1 ack 40 ------- 0 5.0 4.0 20 297
r 17.409922 5 1 ack 40 ------- 0 5.0 4.0 20 297
+ 18.500522 5 1 ack 40 ------- 0 5.0 4.0 21 316
- 18.500522 5 1 ack 40 ------- 0 5.0 4.0 21 316
r 18.518722 5 1 ack 40 ------- 0 5.0 4.0 21 316
+ 18.623722 5 1 ack 40 ------- 0 5.0 4.0 22 317
- 18.623722 5 1 ack 40 ------- 0 5.0 4.0 22 317
r 18.641922 5 1 ack 40 ------- 0 5.0 4.0 22 317
+ 19.978922 5 1 ack 40 ------- 0 5.0 4.0 22 340
- 19.978922 5 1 ack 40 ------- 0 5.0 4.0 22 340
r 19.997122 5 1 ack 40 ------- 0 5.0 4.0 22 340
