+ 5.564522 11 1 ack 40 ------- 0 11.0 10.0 0 82
- 5.564522 11 1 ack 40 ------- 0 11.0 10.0 0 82
r 5.582722 11 1 ack 40 ------- 0 11.0 10.0 0 82
+ 6.919722 11 1 ack 40 ------- 0 11.0 10.0 1 106
- 6.919722 11 1 ack 40 ------- 0 11.0 10.0 1 106
r 6.937922 11 1 ack 40 ------- 0 11.0 10.0 1 106
+ 8.151722 11 1 ack 40 ------- 0 11.0 10.0 1 129
- 8.151722 11 1 ack 40 ------- 0 11.0 10.0 1 129
r 8.169922 11 1 ack 40 ------- 0 11.0 10.0 1 129
+ 8.274922 11 1 ack 40 ------- 0 11.0 10.0 1 131
- 8.274922 11 1 ack 40 ------- 0 11.0 10.0 1 131
r 8.293122 11 1 ack 40 ------- 0 11.0 10.0 1 131
+ 9.630122 11 1 ack 40 ------- 0 11.0 10.0 1 159
- 9.630122 11 1 ack 40 ------- 0 11.0 10.0 1 159
r 9.648322 11 1 ack 40 ------- 0 11.0 10.0 1 159
+ 9.753322 11 1 ack 40 ------- 0 11.0 10.0 1 161
- 9.753322 11 1 ack 40 ------- 0 11.0 10.0 1 161
r 9.771522 11 1 ack 40 ------- 0 11.0 10.0 1 161
+ 14.188522 11 1 ack 40 ------- 0 11.0 10.0 6 240
- 14.188522 11 1 ack 40 ------- 0 11.0 10.0 6 240
r 14.206722 11 1 ack 40 ------- 0 11.0 10.0 6 240
