+ 1.656522 3 1 ack 40 ------- 0 3.0 2.0 0 1
- 1.656522 3 1 ack 40 ------- 0 3.0 2.0 0 1
r 1.674722 3 1 ack 40 ------- 0 3.0 2.0 0 1
+ 2.125722 3 1 ack 40 ------- 0 3.0 2.0 1 6
- 2.125722 3 1 ack 40 ------- 0 3.0 2.0 1 6
r 2.143922 3 1 ack 40 ------- 0 3.0 2.0 1 6
+ 2.248922 3 1 ack 40 ------- 0 3.0 2.0 2 12
- 2.248922 3 1 ack 40 ------- 0 3.0 2.0 2 12
r 2.267122 3 1 ack 40 ------- 0 3.0 2.0 2 12
+ 2.455722 3 1 ack 40 ------- 0 3.0 2.0 2 15
- 2.455722 3 1 ack 40 ------- 0 3.0 2.0 2 15
r 2.473922 3 1 ack 40 ------- 0 3.0 2.0 2 15
+ 2.594922 3 1 ack 40 ------- 0 3.0 2.0 2 18
- 2.594922 3 1 ack 40 ------- 0 3.0 2.0 2 18
r 2.613122 3 1 ack 40 ------- 0 3.0 2.0 2 18
+ 2.841322 3 1 ack 40 ------- 0 3.0 2.0 3 26
- 2.841322 3 1 ack 40 ------- 0 3.0 2.0 3 26
r 2.859522 3 1 ack 40 ------- 0 3.0 2.0 3 26
+ 3.090922 3 1 ack 40 ------- 0 3.0 2.0 4 29
- 3.090922 3 1 ack 40 ------- 0 3.0 2.0 4 29
r 3.109122 3 1 ack 40 ------- 0 3.0 2.0 4 29
+ 3.214122 3 1 ack 40 ------- 0 3.0 2.0 5 31
- 3.214122 3 1 ack 40 ------- 0 3.0 2.0 5 31
r 3.232322 3 1 ack 40 ------- 0 3.0 2.0 5 31
+ 3.460522 3 1 ack 40 ------- 0 3.0 2.0 6 36
- 3.460522 3 1 ack 40 ------- 0 3.0 2.0 6 36
r 3.478722 3 1 ack 40 ------- 0 3.0 2.0 6 36
+ 4.199722 3 1 ack 40 ------- 0 3.0 2.0 7 52
- 4.199722 3 1 ack 40 ------- 0 3.0 2.0 7 52
r 4.217922 3 1 ack 40 ------- 0 3.0 2.0 7 52
+ 4.322922 3 1 ack 40 ------- 0 3.0 2.0 8 58
- 4.322922 3 1 ack 40 ------- 0 3.0 2.0 8 58
r 4.341122 3 1 ack 40 ------- 0 3.0 2.0 8 58
+ 4.572522 3 1 ack 40 ------- 0 3.0 2.0 9 63
- 4.572522 3 1 ack 40 ------- 0 3.0 2.0 9 63
r 4.590722 3 1 ack 40 ------- 0 3.0 2.0 9 63
+ 5.681322 3 1 ack 40 ------- 0 3.0 2.0 10 85
- 5.681322 3 1 ack 40 ------- 0 3.0 2.0 10 85
r 5.699522 3 1 ack 40 ------- 0 3.0 2.0 10 85
+ 5.807722 3 1 ack 40 ------- 0 3.0 2.0 10 88
- 5.807722 3 1 ack 40 ------- 0 3.0 2.0 10 88
r 5.825922 3 1 ack 40 ------- 0 3.0 2.0 10 88
+ 5.930922 3 1 ack 40 ------- 0 3.0 2.0 10 90
- 5.930922 3 1 ack 40 ------- 0 3.0 2.0 10 90
r 5.949122 3 1 ack 40 ------- 0 3.0 2.0 10 90
+ 7.042922 3 1 ack 40 ------- 0 3.0 2.0 10 109
- 7.042922 3 1 ack 40 ------- 0 3.0 2.0 10 109
r 7.061122 3 1 ack 40 ------- 0 3.0 2.0 10 109
+ 7.166122 3 1 ack 40 ------- 0 3.0 2.0 10 111
- 7.166122 3 1 ack 40 ------- 0 3.0 2.0 10 111
r 7.184322 3 1 ack 40 ------- 0 3.0 2.0 10 111
+ 7.289322 3 1 ack 40 ------- 0 3.0 2.0 10 112
- 7.289322 3 1 ack 40 ------- 0 3.0 2.0 10 112
r 7.307522 3 1 ack 40 ------- 0 3.0 2.0 10 112
+ 8.398122 3 1 ack 40 ------- 0 3.0 2.0 16 133
- 8.398122 3 1 ack 40 ------- 0 3.0 2.0 16 133
r 8.416322 3 1 ack 40 ------- 0 3.0 2.0 16 133
+ 9.876522 3 1 ack 40 ------- 0 3.0 2.0 17 162
- 9.876522 3 1 ack 40 ------- 0 3.0 2.0 17 162
r 9.894722 3 1 ack 40 ------- 0 3.0 2.0 17 162
+ 9.999722 3 1 ack 40 ------- 0 3.0 2.0 18 164
- 9.999722 3 1 ack 40 ------- 0 3.0 2.0 18 164
r 10.017922 3 1 ack 40 ------- 0 3.0 2.0 18 164
+ 11.231722 3 1 ack 40 ------- 0 3.0 2.0 19 184
- 11.231722 3 1 ack 40 ------- 0 3.0 2.0 19 184
r 11.249922 3 1 ack 40 ------- 0 3.0 2.0 19 184
+ 11.354922 3 1 ack 40 ------- 0 3.0 2.0 20 187
- 11.354922 3 1 ack 40 ------- 0 3.0 2.0 20 187
r 11.373122 3 1 ack 40 ------- 0 3.0 2.0 20 187
+ 12.586922 3 1 ack 40 ------- 0 3.0 2.0 21 209
- 12.586922 3 1 ack 40 ------- 0 3.0 2.0 21 209
r 12.605122 3 1 ack 40 ------- 0 3.0 2.0 21 209
+ 12.710122 3 1 ack 40 ------- 0 3.0 2.0 22 211
- 12.710122 3 1 ack 40 ------- 0 3.0 2.0 22 211
r 12.728322 3 1 ack 40 ------- 0 3.0 2.0 22 211
+ 12.833322 3 1 ack 40 ------- 0 3.0 2.0 23 215
- 12.833322 3 1 ack 40 ------- 0 3.0 2.0 23 215
r 12.851522 3 1 ack 40 ------- 0 3.0 2.0 23 215
+ 14.065322 3 1 ack 40 ------- 0 3.0 2.0 24 238
- 14.065322 3 1 ack 40 ------- 0 3.0 2.0 24 238
r 14.083522 3 1 ack 40 ------- 0 3.0 2.0 24 238
+ 14.311722 3 1 ack 40 ------- 0 3.0 2.0 24 243
- 14.311722 3 1 ack 40 ------- 0 3.0 2.0 24 243
r 14.329922 3 1 ack 40 ------- 0 3.0 2.0 24 243
+ 14.434922 3 1 ack 40 ------- 0 3.0 2.0 24 245
- 14.434922 3 1 ack 40 ------- 0 3.0 2.0 24 245
r 14.453122 3 1 ack 40 ------- 0 3.0 2.0 24 245
+ 15.913322 3 1 ack 40 ------- 0 3.0 2.0 24 268
- 15.913322 3 1 ack 40 ------- 0 3.0 2.0 24 268
r 15.931522 3 1 ack 40 ------- 0 3.0 2.0 24 268
+ 17.268522 3 1 ack 40 ------- 0 3.0 2.0 27 294
- 17.268522 3 1 ack 40 ------- 0 3.0 2.0 27 294
r 17.286722 3 1 ack 40 ------- 0 3.0 2.0 27 294
+ 18.870122 3 1 ack 40 ------- 0 3.0 2.0 27 321
- 18.870122 3 1 ack 40 ------- 0 3.0 2.0 27 321
r 18.888322 3 1 ack 40 ------- 0 3.0 2.0 27 321
