+ 4.206122 9 1 ack 40 ------- 0 9.0 8.0 0 53
- 4.206122 9 1 ack 40 ------- 0 9.0 8.0 0 53
r 4.224322 9 1 ack 40 ------- 0 9.0 8.0 0 53
+ 7.905322 9 1 ack 40 ------- 0 9.0 8.0 1 123
- 7.905322 9 1 ack 40 ------- 0 9.0 8.0 1 123
r 7.923522 9 1 ack 40 ------- 0 9.0 8.0 1 123
+ 9.260522 9 1 ack 40 ------- 0 9.0 8.0 2 152
- 9.260522 9 1 ack 40 ------- 0 9.0 8.0 2 152
r 9.278722 9 1 ack 40 ------- 0 9.0 8.0 2 152
+ 9.383722 9 1 ack 40 ------- 0 9.0 8.0 3 154
- 9.383722 9 1 ack 40 ------- 0 9.0 8.0 3 154
r 9.401922 9 1 ack 40 ------- 0 9.0 8.0 3 154
+ 13.695722 9 1 ack 40 ------- 0 9.0 8.0 4 228
- 13.695722 9 1 ack 40 ------- 0 9.0 8.0 4 228
r 13.713922 9 1 ack 40 ------- 0 9.0 8.0 4 228
+ 15.050922 9 1 ack 40 ------- 0 9.0 8.0 5 254
- 15.050922 9 1 ack 40 ------- 0 9.0 8.0 5 254
r 15.069122 9 1 ack 40 ------- 0 9.0 8.0 5 254
+ 15.174122 9 1 ack 40 ------- 0 9.0 8.0 6 256
- 15.174122 9 1 ack 40 ------- 0 9.0 8.0 6 256
r 15.192322 9 1 ack 40 ------- 0 9.0 8.0 6 256
+ 16.406122 9 1 ack 40 ------- 0 9.0 8.0 7 277
- 16.406122 9 1 ack 40 ------- 0 9.0 8.0 7 277
r 16.424322 9 1 ack 40 ------- 0 9.0 8.0 7 277
+ 16.529322 9 1 ack 40 ------- 0 9.0 8.0 8 280
- 16.529322 9 1 ack 40 ------- 0 9.0 8.0 8 280
r 16.547522 9 1 ack 40 ------- 0 9.0 8.0 8 280
+ 17.884522 9 1 ack 40 ------- 0 9.0 8.0 9 305
- 17.884522 9 1 ack 40 ------- 0 9.0 8.0 9 305
r 17.902722 9 1 ack 40 ------- 0 9.0 8.0 9 305
+ 18.007722 9 1 ack 40 ------- 0 9.0 8.0 10 307
- 18.007722 9 1 ack 40 ------- 0 9.0 8.0 10 307
r 18.025922 9 1 ack 40 ------- 0 9.0 8.0 10 307
+ 18.130922 9 1 ack 40 ------- 0 9.0 8.0 11 310
- 18.130922 9 1 ack 40 ------- 0 9.0 8.0 11 310
r 18.149122 9 1 ack 40 ------- 0 9.0 8.0 11 310
+ 19.362922 9 1 ack 40 ------- 0 9.0 8.0 12 330
- 19.362922 9 1 ack 40 ------- 0 9.0 8.0 12 330
r 19.381122 9 1 ack 40 ------- 0 9.0 8.0 12 330
+ 19.486122 9 1 ack 40 ------- 0 9.0 8.0 13 332
- 19.486122 9 1 ack 40 ------- 0 9.0 8.0 13 332
r 19.504322 9 1 ack 40 ------- 0 9.0 8.0 13 332
+ 19.609322 9 1 ack 40 ------- 0 9.0 8.0 14 334
- 19.609322 9 1 ack 40 ------- 0 9.0 8.0 14 334
r 19.627522 9 1 ack 40 ------- 0 9.0 8.0 14 334
+ 19.732522 9 1 ack 40 ------- 0 9.0 8.0 15 336
- 19.732522 9 1 ack 40 ------- 0 9.0 8.0 15 336
r 19.750722 9 1 ack 40 ------- 0 9.0 8.0 15 336
