+ 2.724522 7 1 ack 40 ------- 0 7.0 6.0 0 21
- 2.724522 7 1 ack 40 ------- 0 7.0 6.0 0 21
r 2.742722 7 1 ack 40 ------- 0 7.0 6.0 0 21
+ 3.706922 7 1 ack 40 ------- 0 7.0 6.0 1 41
- 3.706922 7 1 ack 40 ------- 0 7.0 6.0 1 41
r 3.725122 7 1 ack 40 ------- 0 7.0 6.0 1 41
+ 3.953322 7 1 ack 40 ------- 0 7.0 6.0 2 47
- 3.953322 7 1 ack 40 ------- 0 7.0 6.0 2 47
r 3.971522 7 1 ack 40 ------- 0 7.0 6.0 2 47
+ 4.942122 7 1 ack 40 ------- 0 7.0 6.0 3 70
- 4.942122 7 1 ack 40 ------- 0 7.0 6.0 3 70
r 4.960322 7 1 ack 40 ------- 0 7.0 6.0 3 70
+ 5.065322 7 1 ack 40 ------- 0 7.0 6.0 4 73
- 5.065322 7 1 ack 40 ------- 0 7.0 6.0 4 73
r 5.083522 7 1 ack 40 ------- 0 7.0 6.0 4 73
+ 5.434922 7 1 ack 40 ------- 0 7.0 6.0 4 79
- 5.434922 7 1 ack 40 ------- 0 7.0 6.0 4 79
r 5.453122 7 1 ack 40 ------- 0 7.0 6.0 4 79
+ 6.423722 7 1 ack 40 ------- 0 7.0 6.0 4 96
- 6.423722 7 1 ack 40 ------- 0 7.0 6.0 4 96
r 6.441922 7 1 ack 40 ------- 0 7.0 6.0 4 96
+ 6.546922 7 1 ack 40 ------- 0 7.0 6.0 4 98
- 6.546922 7 1 ack 40 ------- 0 7.0 6.0 4 98
r 6.565122 7 1 ack 40 ------- 0 7.0 6.0 4 98
+ 6.670122 7 1 ack 40 ------- 0 7.0 6.0 4 100
- 6.670122 7 1 ack 40 ------- 0 7.0 6.0 4 100
r 6.688322 7 1 ack 40 ------- 0 7.0 6.0 4 100
+ 6.793322 7 1 ack 40 ------- 0 7.0 6.0 4 104
- 6.793322 7 1 ack 40 ------- 0 7.0 6.0 4 104
r 6.811522 7 1 ack 40 ------- 0 7.0 6.0 4 104
+ 7.535722 7 1 ack 40 ------- 0 7.0 6.0 4 116
- 7.535722 7 1 ack 40 ------- 0 7.0 6.0 4 116
r 7.553922 7 1 ack 40 ------- 0 7.0 6.0 4 116
+ 7.658922 7 1 ack 40 ------- 0 7.0 6.0 6 117
- 7.658922 7 1 ack 40 ------- 0 7.0 6.0 6 117
r 7.677122 7 1 ack 40 ------- 0 7.0 6.0 6 117
+ 8.767722 7 1 ack 40 ------- 0 7.0 6.0 12 140
- 8.767722 7 1 ack 40 ------- 0 7.0 6.0 12 140
r 8.785922 7 1 ack 40 ------- 0 7.0 6.0 12 140
+ 8.890922 7 1 ack 40 ------- 0 7.0 6.0 12 144
- 8.890922 7 1 ack 40 ------- 0 7.0 6.0 12 144
r 8.909122 7 1 ack 40 ------- 0 7.0 6.0 12 144
+ 10.246122 7 1 ack 40 ------- 0 7.0 6.0 13 169
- 10.246122 7 1 ack 40 ------- 0 7.0 6.0 13 169
r 10.264322 7 1 ack 40 ------- 0 7.0 6.0 13 169
+ 10.369322 7 1 ack 40 ------- 0 7.0 6.0 14 170
- 10.369322 7 1 ack 40 ------- 0 7.0 6.0 14 170
r 10.387522 7 1 ack 40 ------- 0 7.0 6.0 14 170
+ 10.492522 7 1 ack 40 ------- 0 7.0 6.0 15 172
- 10.492522 7 1 ack 40 ------- 0 7.0 6.0 15 172
r 10.510722 7 1 ack 40 ------- 0 7.0 6.0 15 172
+ 10.615722 7 1 ack 40 ------- 0 7.0 6.0 16 174
- 10.615722 7 1 ack 40 ------- 0 7.0 6.0 16 174
r 10.633922 7 1 ack 40 ------- 0 7.0 6.0 16 174
+ 11.724522 7 1 ack 40 ------- 0 7.0 6.0 17 194
- 11.724522 7 1 ack 40 ------- 0 7.0 6.0 17 194
r 11.742722 7 1 ack 40 ------- 0 7.0 6.0 17 194
+ 11.847722 7 1 ack 40 ------- 0 7.0 6.0 18 196
- 11.847722 7 1 ack 40 ------- 0 7.0 6.0 18 196
r 11.865922 7 1 ack 40 ------- 0 7.0 6.0 18 196
+ 11.970922 7 1 ack 40 ------- 0 7.0 6.0 19 198
- 11.970922 7 1 ack 40 ------- 0 7.0 6.0 19 198
r 11.989122 7 1 ack 40 ------- 0 7.0 6.0 19 198
+ 12.094122 7 1 ack 40 ------- 0 7.0 6.0 20 200
- 12.094122 7 1 ack 40 ------- 0 7.0 6.0 20 200
r 12.112322 7 1 ack 40 ------- 0 7.0 6.0 20 200
+ 13.326122 7 1 ack 40 ------- 0 7.0 6.0 20 222
- 13.326122 7 1 ack 40 ------- 0 7.0 6.0 20 222
r 13.344322 7 1 ack 40 ------- 0 7.0 6.0 20 222
+ 13.449322 7 1 ack 40 ------- 0 7.0 6.0 20 224
- 13.449322 7 1 ack 40 ------- 0 7.0 6.0 20 224
r 13.467522 7 1 ack 40 ------- 0 7.0 6.0 20 224
+ 13.572522 7 1 ack 40 ------- 0 7.0 6.0 20 226
- 13.572522 7 1 ack 40 ------- 0 7.0 6.0 20 226
r 13.590722 7 1 ack 40 ------- 0 7.0 6.0 20 226
+ 14.681322 7 1 ack 40 ------- 0 7.0 6.0 20 249
- 14.681322 7 1 ack 40 ------- 0 7.0 6.0 20 249
r 14.699522 7 1 ack 40 ------- 0 7.0 6.0 20 249
+ 14.804522 7 1 ack 40 ------- 0 7.0 6.0 20 250
- 14.804522 7 1 ack 40 ------- 0 7.0 6.0 20 250
r 14.822722 7 1 ack 40 ------- 0 7.0 6.0 20 250
+ 14.927722 7 1 ack 40 ------- 0 7.0 6.0 24 251
- 14.927722 7 1 ack 40 ------- 0 7.0 6.0 24 251
r 14.945922 7 1 ack 40 ------- 0 7.0 6.0 24 251
+ 16.159722 7 1 ack 40 ------- 0 7.0 6.0 27 272
- 16.159722 7 1 ack 40 ------- 0 7.0 6.0 27 272
r 16.177922 7 1 ack 40 ------- 0 7.0 6.0 27 272
+ 16.282922 7 1 ack 40 ------- 0 7.0 6.0 27 275
- 16.282922 7 1 ack 40 ------- 0 7.0 6.0 27 275
r 16.301122 7 1 ack 40 ------- 0 7.0 6.0 27 275
+ 17.514922 7 1 ack 40 ------- 0 7.0 6.0 28 299
- 17.514922 7 1 ack 40 ------- 0 7.0 6.0 28 299
r 17.533122 7 1 ack 40 ------- 0 7.0 6.0 28 299
+ 17.638122 7 1 ack 40 ------- 0 7.0 6.0 29 300
- 17.638122 7 1 ack 40 ------- 0 7.0 6.0 29 300
r 17.656322 7 1 ack 40 ------- 0 7.0 6.0 29 300
+ 17.761322 7 1 ack 40 ------- 0 7.0 6.0 30 303
- 17.761322 7 1 ack 40 ------- 0 7.0 6.0 30 303
r 17.779522 7 1 ack 40 ------- 0 7.0 6.0 30 303
+ 18.993322 7 1 ack 40 ------- 0 7.0 6.0 31 323
- 18.993322 7 1 ack 40 ------- 0 7.0 6.0 31 323
r 19.011522 7 1 ack 40 ------- 0 7.0 6.0 31 323
+ 19.116522 7 1 ack 40 ------- 0 7.0 6.0 32 325
- 19.116522 7 1 ack 40 ------- 0 7.0 6.0 32 325
r 19.134722 7 1 ack 40 ------- 0 7.0 6.0 32 325
+ 19.239722 7 1 ack 40 ------- 0 7.0 6.0 33 328
- 19.239722 7 1 ack 40 ------- 0 7.0 6.0 33 328
r 19.257922 7 1 ack 40 ------- 0 7.0 6.0 33 328
