+ 6.676522 13 1 ack 40 ------- 0 13.0 12.0 0 101
- 6.676522 13 1 ack 40 ------- 0 13.0 12.0 0 101
r 6.694722 13 1 ack 40 ------- 0 13.0 12.0 0 101
+ 7.782122 13 1 ack 40 ------- 0 13.0 12.0 1 120
- 7.782122 13 1 ack 40 ------- 0 13.0 12.0 1 120
r 7.800322 13 1 ack 40 ------- 0 13.0 12.0 1 120
+ 8.028522 13 1 ack 40 ------- 0 13.0 12.0 2 126
- 8.028522 13 1 ack 40 ------- 0 13.0 12.0 2 126
r 8.046722 13 1 ack 40 ------- 0 13.0 12.0 2 126
+ 9.014122 13 1 ack 40 ------- 0 13.0 12.0 3 146
- 9.014122 13 1 ack 40 ------- 0 13.0 12.0 3 146
r 9.032322 13 1 ack 40 ------- 0 13.0 12.0 3 146
+ 9.137322 13 1 ack 40 ------- 0 13.0 12.0 4 149
- 9.137322 13 1 ack 40 ------- 0 13.0 12.0 4 149
r 9.155522 13 1 ack 40 ------- 0 13.0 12.0 4 149
+ 9.506922 13 1 ack 40 ------- 0 13.0 12.0 5 156
- 9.506922 13 1 ack 40 ------- 0 13.0 12.0 5 156
r 9.525122 13 1 ack 40 ------- 0 13.0 12.0 5 156
+ 10.738922 13 1 ack 40 ------- 0 13.0 12.0 5 177
- 10.738922 13 1 ack 40 ------- 0 13.0 12.0 5 177
r 10.757122 13 1 ack 40 ------- 0 13.0 12.0 5 177
+ 10.862122 13 1 ack 40 ------- 0 13.0 12.0 5 179
- 10.862122 13 1 ack 40 ------- 0 13.0 12.0 5 179
r 10.880322 13 1 ack 40 ------- 0 13.0 12.0 5 179
+ 10.985322 13 1 ack 40 ------- 0 13.0 12.0 5 181
- 10.985322 13 1 ack 40 ------- 0 13.0 12.0 5 181
r 11.003522 13 1 ack 40 ------- 0 13.0 12.0 5 181
+ 11.108522 13 1 ack 40 ------- 0 13.0 12.0 5 183
- 11.108522 13 1 ack 40 ------- 0 13.0 12.0 5 183
r 11.126722 13 1 ack 40 ------- 0 13.0 12.0 5 183
+ 12.217322 13 1 ack 40 ------- 0 13.0 12.0 5 203
- 12.217322 13 1 ack 40 ------- 0 13.0 12.0 5 203
r 12.235522 13 1 ack 40 ------- 0 13.0 12.0 5 203
+ 12.340522 13 1 ack 40 ------- 0 13.0 12.0 5 205
- 12.340522 13 1 ack 40 ------- 0 13.0 12.0 5 205
r 12.358722 13 1 ack 40 ------- 0 13.0 12.0 5 205
+ 12.463722 13 1 ack 40 ------- 0 13.0 12.0 6 206
- 12.463722 13 1 ack 40 ------- 0 13.0 12.0 6 206
r 12.481922 13 1 ack 40 ------- 0 13.0 12.0 6 206
+ 13.818922 13 1 ack 40 ------- 0 13.0 12.0 7 231
- 13.818922 13 1 ack 40 ------- 0 13.0 12.0 7 231
r 13.837122 13 1 ack 40 ------- 0 13.0 12.0 7 231
+ 13.942122 13 1 ack 40 ------- 0 13.0 12.0 14 234
- 13.942122 13 1 ack 40 ------- 0 13.0 12.0 14 234
r 13.960322 13 1 ack 40 ------- 0 13.0 12.0 14 234
+ 15.297322 13 1 ack 40 ------- 0 13.0 12.0 14 258
- 15.297322 13 1 ack 40 ------- 0 13.0 12.0 14 258
r 15.315522 13 1 ack 40 ------- 0 13.0 12.0 14 258
+ 15.420522 13 1 ack 40 ------- 0 13.0 12.0 14 260
- 15.420522 13 1 ack 40 ------- 0 13.0 12.0 14 260
r 15.438722 13 1 ack 40 ------- 0 13.0 12.0 14 260
+ 15.543722 13 1 ack 40 ------- 0 13.0 12.0 15 262
- 15.543722 13 1 ack 40 ------- 0 13.0 12.0 15 262
r 15.561922 13 1 ack 40 ------- 0 13.0 12.0 15 262
+ 15.666922 13 1 ack 40 ------- 0 13.0 12.0 16 263
- 15.666922 13 1 ack 40 ------- 0 13.0 12.0 16 263
r 15.685122 13 1 ack 40 ------- 0 13.0 12.0 16 263
+ 15.790122 13 1 ack 40 ------- 0 13.0 12.0 17 264
- 15.790122 13 1 ack 40 ------- 0 13.0 12.0 17 264
r 15.808322 13 1 ack 40 ------- 0 13.0 12.0 17 264
+ 16.652522 13 1 ack 40 ------- 0 13.0 12.0 18 282
- 16.652522 13 1 ack 40 ------- 0 13.0 12.0 18 282
r 16.670722 13 1 ack 40 ------- 0 13.0 12.0 18 282
+ 16.775722 13 1 ack 40 ------- 0 13.0 12.0 19 284
- 16.775722 13 1 ack 40 ------- 0 13.0 12.0 19 284
r 16.793922 13 1 ack 40 ------- 0 13.0 12.0 19 284
+ 16.898922 13 1 ack 40 ------- 0 13.0 12.0 20 286
- 16.898922 13 1 ack 40 ------- 0 13.0 12.0 20 286
r 16.917122 13 1 ack 40 ------- 0 13.0 12.0 20 286
+ 17.145322 13 1 ack 40 ------- 0 13.0 12.0 21 291
- 17.145322 13 1 ack 40 ------- 0 13.0 12.0 21 291
r 17.163522 13 1 ack 40 ------- 0 13.0 12.0 21 291
+ 18.254122 13 1 ack 40 ------- 0 13.0 12.0 21 312
- 18.254122 13 1 ack 40 ------- 0 13.0 12.0 21 312
r 18.272322 13 1 ack 40 ------- 0 13.0 12.0 21 312
+ 18.377322 13 1 ack 40 ------- 0 13.0 12.0 21 314
- 18.377322 13 1 ack 40 ------- 0 13.0 12.0 21 314
r 18.395522 13 1 ack 40 ------- 0 13.0 12.0 21 314
+ 18.746922 13 1 ack 40 ------- 0 13.0 12.0 21 319
- 18.746922 13 1 ack 40 ------- 0 13.0 12.0 21 319
r 18.765122 13 1 ack 40 ------- 0 13.0 12.0 21 319
+ 19.855722 13 1 ack 40 ------- 0 13.0 12.0 21 339
- 19.855722 13 1 ack 40 ------- 0 13.0 12.0 21 339
r 19.873922 13 1 ack 40 ------- 0 13.0 12.0 21 339
