+ 0.19295 3 1 ack 40 ------- 0 3.0 2.0 0 1
- 0.19295 3 1 ack 40 ------- 0 3.0 2.0 0 1
r 0.21115 3 1 ack 40 ------- 0 3.0 2.0 0 1
+ 0.66215 3 1 ack 40 ------- 0 3.0 2.0 1 5
- 0.66215 3 1 ack 40 ------- 0 3.0 2.0 1 5
r 0.68035 3 1 ack 40 ------- 0 3.0 2.0 1 5
+ 0.78535 3 1 ack 40 ------- 0 3.0 2.0 2 8
- 0.78535 3 1 ack 40 ------- 0 3.0 2.0 2 8
r 0.80355 3 1 ack 40 ------- 0 3.0 2.0 2 8
+ 0.99215 3 1 ack 40 ------- 0 3.0 2.0 2 10
- 0.99215 3 1 ack 40 ------- 0 3.0 2.0 2 10
r 1.01035 3 1 ack 40 ------- 0 3.0 2.0 2 10
+ 1.13135 3 1 ack 40 ------- 0 3.0 2.0 2 12
- 1.13135 3 1 ack 40 ------- 0 3.0 2.0 2 12
r 1.14955 3 1 ack 40 ------- 0 3.0 2.0 2 12
+ 1.25455 3 1 ack 40 ------- 0 3.0 2.0 3 15
- 1.25455 3 1 ack 40 ------- 0 3.0 2.0 3 15
r 1.27275 3 1 ack 40 ------- 0 3.0 2.0 3 15
+ 1.37775 3 1 ack 40 ------- 0 3.0 2.0 4 16
- 1.37775 3 1 ack 40 ------- 0 3.0 2.0 4 16
r 1.39595 3 1 ack 40 ------- 0 3.0 2.0 4 16
+ 1.50095 3 1 ack 40 ------- 0 3.0 2.0 5 21
- 1.50095 3 1 ack 40 ------- 0 3.0 2.0 5 21
r 1.51915 3 1 ack 40 ------- 0 3.0 2.0 5 21
+ 1.62735 3 1 ack 40 ------- 0 3.0 2.0 6 23
- 1.62735 3 1 ack 40 ------- 0 3.0 2.0 6 23
r 1.64555 3 1 ack 40 ------- 0 3.0 2.0 6 23
+ 1.84695 3 1 ack 40 ------- 0 3.0 2.0 7 25
- 1.84695 3 1 ack 40 ------- 0 3.0 2.0 7 25
r 1.86515 3 1 ack 40 ------- 0 3.0 2.0 7 25
+ 2.09335 3 1 ack 40 ------- 0 3.0 2.0 8 32
- 2.09335 3 1 ack 40 ------- 0 3.0 2.0 8 32
r 2.11155 3 1 ack 40 ------- 0 3.0 2.0 8 32
+ 2.33975 3 1 ack 40 ------- 0 3.0 2.0 9 36
- 2.33975 3 1 ack 40 ------- 0 3.0 2.0 9 36
r 2.35795 3 1 ack 40 ------- 0 3.0 2.0 9 36
+ 2.46295 3 1 ack 40 ------- 0 3.0 2.0 10 38
- 2.46295 3 1 ack 40 ------- 0 3.0 2.0 10 38
r 2.48115 3 1 ack 40 ------- 0 3.0 2.0 10 38
+ 2.70935 3 1 ack 40 ------- 0 3.0 2.0 11 42
- 2.70935 3 1 ack 40 ------- 0 3.0 2.0 11 42
r 2.72755 3 1 ack 40 ------- 0 3.0 2.0 11 42
+ 2.95575 3 1 ack 40 ------- 0 3.0 2.0 12 46
- 2.95575 3 1 ack 40 ------- 0 3.0 2.0 12 46
r 2.97395 3 1 ack 40 ------- 0 3.0 2.0 12 46
+ 3.32535 3 1 ack 40 ------- 0 3.0 2.0 13 52
- 3.32535 3 1 ack 40 ------- 0 3.0 2.0 13 52
r 3.34355 3 1 ack 40 ------- 0 3.0 2.0 13 52
+ 3.44855 3 1 ack 40 ------- 0 3.0 2.0 14 54
- 3.44855 3 1 ack 40 ------- 0 3.0 2.0 14 54
r 3.46675 3 1 ack 40 ------- 0 3.0 2.0 14 54
+ 3.69495 3 1 ack 40 ------- 0 3.0 2.0 15 58
- 3.69495 3 1 ack 40 ------- 0 3.0 2.0 15 58
r 3.71315 3 1 ack 40 ------- 0 3.0 2.0 15 58
+ 3.94135 3 1 ack 40 ------- 0 3.0 2.0 16 62
- 3.94135 3 1 ack 40 ------- 0 3.0 2.0 16 62
r 3.95955 3 1 ack 40 ------- 0 3.0 2.0 16 62
+ 4.06455 3 1 ack 40 ------- 0 3.0 2.0 17 64
- 4.06455 3 1 ack 40 ------- 0 3.0 2.0 17 64
r 4.08275 3 1 ack 40 ------- 0 3.0 2.0 17 64
+ 4.31095 3 1 ack 40 ------- 0 3.0 2.0 18 70
- 4.31095 3 1 ack 40 ------- 0 3.0 2.0 18 70
r 4.32915 3 1 ack 40 ------- 0 3.0 2.0 18 70
+ 4.43415 3 1 ack 40 ------- 0 3.0 2.0 19 72
- 4.43415 3 1 ack 40 ------- 0 3.0 2.0 19 72
r 4.45235 3 1 ack 40 ------- 0 3.0 2.0 19 72
+ 4.68055 3 1 ack 40 ------- 0 3.0 2.0 20 76
- 4.68055 3 1 ack 40 ------- 0 3.0 2.0 20 76
r 4.69875 3 1 ack 40 ------- 0 3.0 2.0 20 76
+ 4.92695 3 1 ack 40 ------- 0 3.0 2.0 21 80
- 4.92695 3 1 ack 40 ------- 0 3.0 2.0 21 80
r 4.94515 3 1 ack 40 ------- 0 3.0 2.0 21 80
+ 5.05015 3 1 ack 40 ------- 0 3.0 2.0 22 82
- 5.05015 3 1 ack 40 ------- 0 3.0 2.0 22 82
r 5.06835 3 1 ack 40 ------- 0 3.0 2.0 22 82
+ 5.17335 3 1 ack 40 ------- 0 3.0 2.0 23 84
- 5.17335 3 1 ack 40 ------- 0 3.0 2.0 23 84
r 5.19155 3 1 ack 40 ------- 0 3.0 2.0 23 84
+ 5.54295 3 1 ack 40 ------- 0 3.0 2.0 24 91
- 5.54295 3 1 ack 40 ------- 0 3.0 2.0 24 91
r 5.56115 3 1 ack 40 ------- 0 3.0 2.0 24 91
+ 5.66615 3 1 ack 40 ------- 0 3.0 2.0 25 93
- 5.66615 3 1 ack 40 ------- 0 3.0 2.0 25 93
r 5.68435 3 1 ack 40 ------- 0 3.0 2.0 25 93
+ 5.91255 3 1 ack 40 ------- 0 3.0 2.0 26 98
- 5.91255 3 1 ack 40 ------- 0 3.0 2.0 26 98
r 5.93075 3 1 ack 40 ------- 0 3.0 2.0 26 98
+ 6.15895 3 1 ack 40 ------- 0 3.0 2.0 27 102
- 6.15895 3 1 ack 40 ------- 0 3.0 2.0 27 102
r 6.17715 3 1 ack 40 ------- 0 3.0 2.0 27 102
+ 6.28215 3 1 ack 40 ------- 0 3.0 2.0 28 104
- 6.28215 3 1 ack 40 ------- 0 3.0 2.0 28 104
r 6.30035 3 1 ack 40 ------- 0 3.0 2.0 28 104
+ 6.40535 3 1 ack 40 ------- 0 3.0 2.0 29 106
- 6.40535 3 1 ack 40 ------- 0 3.0 2.0 29 106
r 6.42355 3 1 ack 40 ------- 0 3.0 2.0 29 106
+ 6.52855 3 1 ack 40 ------- 0 3.0 2.0 30 108
- 6.52855 3 1 ack 40 ------- 0 3.0 2.0 30 108
r 6.54675 3 1 ack 40 ------- 0 3.0 2.0 30 108
+ 6.89815 3 1 ack 40 ------- 0 3.0 2.0 31 114
- 6.89815 3 1 ack 40 ------- 0 3.0 2.0 31 114
r 6.91635 3 1 ack 40 ------- 0 3.0 2.0 31 114
+ 7.02135 3 1 ack 40 ------- 0 3.0 2.0 32 117
- 7.02135 3 1 ack 40 ------- 0 3.0 2.0 32 117
r 7.03955 3 1 ack 40 ------- 0 3.0 2.0 32 117
+ 7.39095 3 1 ack 40 ------- 0 3.0 2.0 33 124
- 7.39095 3 1 ack 40 ------- 0 3.0 2.0 33 124
r 7.40915 3 1 ack 40 ------- 0 3.0 2.0 33 124
+ 7.63735 3 1 ack 40 ------- 0 3.0 2.0 34 128
- 7.63735 3 1 ack 40 ------- 0 3.0 2.0 34 128
r 7.65555 3 1 ack 40 ------- 0 3.0 2.0 34 128
+ 7.76055 3 1 ack 40 ------- 0 3.0 2.0 35 130
- 7.76055 3 1 ack 40 ------- 0 3.0 2.0 35 130
r 7.77875 3 1 ack 40 ------- 0 3.0 2.0 35 130
+ 7.88375 3 1 ack 40 ------- 0 3.0 2.0 36 132
- 7.88375 3 1 ack 40 ------- 0 3.0 2.0 36 132
r 7.90195 3 1 ack 40 ------- 0 3.0 2.0 36 132
+ 8.00695 3 1 ack 40 ------- 0 3.0 2.0 37 134
- 8.00695 3 1 ack 40 ------- 0 3.0 2.0 37 134
r 8.02515 3 1 ack 40 ------- 0 3.0 2.0 37 134
+ 8.37655 3 1 ack 40 ------- 0 3.0 2.0 38 140
- 8.37655 3 1 ack 40 ------- 0 3.0 2.0 38 140
r 8.39475 3 1 ack 40 ------- 0 3.0 2.0 38 140
+ 8.49975 3 1 ack 40 ------- 0 3.0 2.0 39 142
- 8.49975 3 1 ack 40 ------- 0 3.0 2.0 39 142
r 8.51795 3 1 ack 40 ------- 0 3.0 2.0 39 142
+ 8.62295 3 1 ack 40 ------- 0 3.0 2.0 40 145
- 8.62295 3 1 ack 40 ------- 0 3.0 2.0 40 145
r 8.64115 3 1 ack 40 ------- 0 3.0 2.0 40 145
+ 9.11575 3 1 ack 40 ------- 0 3.0 2.0 40 153
- 9.11575 3 1 ack 40 ------- 0 3.0 2.0 40 153
r 9.13395 3 1 ack 40 ------- 0 3.0 2.0 40 153
+ 9.23895 3 1 ack 40 ------- 0 3.0 2.0 40 155
- 9.23895 3 1 ack 40 ------- 0 3.0 2.0 40 155
r 9.25715 3 1 ack 40 ------- 0 3.0 2.0 40 155
+ 9.36215 3 1 ack 40 ------- 0 3.0 2.0 40 157
- 9.36215 3 1 ack 40 ------- 0 3.0 2.0 40 157
r 9.38035 3 1 ack 40 ------- 0 3.0 2.0 40 157
+ 9.48535 3 1 ack 40 ------- 0 3.0 2.0 40 159
- 9.48535 3 1 ack 40 ------- 0 3.0 2.0 40 159
r 9.50355 3 1 ack 40 ------- 0 3.0 2.0 40 159
+ 9.85495 3 1 ack 40 ------- 0 3.0 2.0 40 162
- 9.85495 3 1 ack 40 ------- 0 3.0 2.0 40 162
r 9.87315 3 1 ack 40 ------- 0 3.0 2.0 40 162
+ 9.97815 3 1 ack 40 ------- 0 3.0 2.0 40 163
- 9.97815 3 1 ack 40 ------- 0 3.0 2.0 40 163
r 9.99635 3 1 ack 40 ------- 0 3.0 2.0 40 163
+ 10.10135 3 1 ack 40 ------- 0 3.0 2.0 40 164
- 10.10135 3 1 ack 40 ------- 0 3.0 2.0 40 164
r 10.11955 3 1 ack 40 ------- 0 3.0 2.0 40 164
+ 10.22455 3 1 ack 40 ------- 0 3.0 2.0 40 165
- 10.22455 3 1 ack 40 ------- 0 3.0 2.0 40 165
r 10.24275 3 1 ack 40 ------- 0 3.0 2.0 40 165
+ 10.59415 3 1 ack 40 ------- 0 3.0 2.0 40 170
- 10.59415 3 1 ack 40 ------- 0 3.0 2.0 40 170
r 10.61235 3 1 ack 40 ------- 0 3.0 2.0 40 170
+ 10.71735 3 1 ack 40 ------- 0 3.0 2.0 40 171
- 10.71735 3 1 ack 40 ------- 0 3.0 2.0 40 171
r 10.73555 3 1 ack 40 ------- 0 3.0 2.0 40 171
+ 10.84055 3 1 ack 40 ------- 0 3.0 2.0 51 172
- 10.84055 3 1 ack 40 ------- 0 3.0 2.0 51 172
r 10.85875 3 1 ack 40 ------- 0 3.0 2.0 51 172
+ 11.30975 3 1 ack 40 ------- 0 3.0 2.0 52 181
- 11.30975 3 1 ack 40 ------- 0 3.0 2.0 52 181
r 11.32795 3 1 ack 40 ------- 0 3.0 2.0 52 181
+ 11.43295 3 1 ack 40 ------- 0 3.0 2.0 53 184
- 11.43295 3 1 ack 40 ------- 0 3.0 2.0 53 184
r 11.45115 3 1 ack 40 ------- 0 3.0 2.0 53 184
+ 11.92575 3 1 ack 40 ------- 0 3.0 2.0 54 192
- 11.92575 3 1 ack 40 ------- 0 3.0 2.0 54 192
r 11.94395 3 1 ack 40 ------- 0 3.0 2.0 54 192
+ 12.17215 3 1 ack 40 ------- 0 3.0 2.0 55 197
- 12.17215 3 1 ack 40 ------- 0 3.0 2.0 55 197
r 12.19035 3 1 ack 40 ------- 0 3.0 2.0 55 197
+ 12.29535 3 1 ack 40 ------- 0 3.0 2.0 56 199
- 12.29535 3 1 ack 40 ------- 0 3.0 2.0 56 199
r 12.31355 3 1 ack 40 ------- 0 3.0 2.0 56 199
+ 12.41855 3 1 ack 40 ------- 0 3.0 2.0 57 201
- 12.41855 3 1 ack 40 ------- 0 3.0 2.0 57 201
r 12.43675 3 1 ack 40 ------- 0 3.0 2.0 57 201
+ 12.78815 3 1 ack 40 ------- 0 3.0 2.0 58 207
- 12.78815 3 1 ack 40 ------- 0 3.0 2.0 58 207
r 12.80635 3 1 ack 40 ------- 0 3.0 2.0 58 207
+ 13.15775 3 1 ack 40 ------- 0 3.0 2.0 59 215
- 13.15775 3 1 ack 40 ------- 0 3.0 2.0 59 215
r 13.17595 3 1 ack 40 ------- 0 3.0 2.0 59 215
+ 13.28095 3 1 ack 40 ------- 0 3.0 2.0 60 217
- 13.28095 3 1 ack 40 ------- 0 3.0 2.0 60 217
r 13.29915 3 1 ack 40 ------- 0 3.0 2.0 60 217
+ 13.40415 3 1 ack 40 ------- 0 3.0 2.0 61 219
- 13.40415 3 1 ack 40 ------- 0 3.0 2.0 61 219
r 13.42235 3 1 ack 40 ------- 0 3.0 2.0 61 219
+ 13.77375 3 1 ack 40 ------- 0 3.0 2.0 62 225
- 13.77375 3 1 ack 40 ------- 0 3.0 2.0 62 225
r 13.79195 3 1 ack 40 ------- 0 3.0 2.0 62 225
+ 13.89695 3 1 ack 40 ------- 0 3.0 2.0 63 227
- 13.89695 3 1 ack 40 ------- 0 3.0 2.0 63 227
r 13.91515 3 1 ack 40 ------- 0 3.0 2.0 63 227
+ 14.38975 3 1 ack 40 ------- 0 3.0 2.0 64 236
- 14.38975 3 1 ack 40 ------- 0 3.0 2.0 64 236
r 14.40795 3 1 ack 40 ------- 0 3.0 2.0 64 236
+ 14.51295 3 1 ack 40 ------- 0 3.0 2.0 65 238
- 14.51295 3 1 ack 40 ------- 0 3.0 2.0 65 238
r 14.53115 3 1 ack 40 ------- 0 3.0 2.0 65 238
+ 14.63615 3 1 ack 40 ------- 0 3.0 2.0 66 240
- 14.63615 3 1 ack 40 ------- 0 3.0 2.0 66 240
r 14.65435 3 1 ack 40 ------- 0 3.0 2.0 66 240
+ 15.00575 3 1 ack 40 ------- 0 3.0 2.0 67 247
- 15.00575 3 1 ack 40 ------- 0 3.0 2.0 67 247
r 15.02395 3 1 ack 40 ------- 0 3.0 2.0 67 247
+ 15.12895 3 1 ack 40 ------- 0 3.0 2.0 68 249
- 15.12895 3 1 ack 40 ------- 0 3.0 2.0 68 249
r 15.14715 3 1 ack 40 ------- 0 3.0 2.0 68 249
+ 15.25215 3 1 ack 40 ------- 0 3.0 2.0 69 251
- 15.25215 3 1 ack 40 ------- 0 3.0 2.0 69 251
r 15.27035 3 1 ack 40 ------- 0 3.0 2.0 69 251
+ 15.74495 3 1 ack 40 ------- 0 3.0 2.0 70 259
- 15.74495 3 1 ack 40 ------- 0 3.0 2.0 70 259
r 15.76315 3 1 ack 40 ------- 0 3.0 2.0 70 259
+ 15.86815 3 1 ack 40 ------- 0 3.0 2.0 71 262
- 15.86815 3 1 ack 40 ------- 0 3.0 2.0 71 262
r 15.88635 3 1 ack 40 ------- 0 3.0 2.0 71 262
+ 15.99135 3 1 ack 40 ------- 0 3.0 2.0 72 264
- 15.99135 3 1 ack 40 ------- 0 3.0 2.0 72 264
r 16.00955 3 1 ack 40 ------- 0 3.0 2.0 72 264
+ 16.48415 3 1 ack 40 ------- 0 3.0 2.0 73 273
- 16.48415 3 1 ack 40 ------- 0 3.0 2.0 73 273
r 16.50235 3 1 ack 40 ------- 0 3.0 2.0 73 273
+ 16.60735 3 1 ack 40 ------- 0 3.0 2.0 74 275
- 16.60735 3 1 ack 40 ------- 0 3.0 2.0 74 275
r 16.62555 3 1 ack 40 ------- 0 3.0 2.0 74 275
+ 16.73055 3 1 ack 40 ------- 0 3.0 2.0 75 277
- 16.73055 3 1 ack 40 ------- 0 3.0 2.0 75 277
r 16.74875 3 1 ack 40 ------- 0 3.0 2.0 75 277
+ 17.22335 3 1 ack 40 ------- 0 3.0 2.0 76 285
- 17.22335 3 1 ack 40 ------- 0 3.0 2.0 76 285
r 17.24155 3 1 ack 40 ------- 0 3.0 2.0 76 285
+ 17.34655 3 1 ack 40 ------- 0 3.0 2.0 77 287
- 17.34655 3 1 ack 40 ------- 0 3.0 2.0 77 287
r 17.36475 3 1 ack 40 ------- 0 3.0 2.0 77 287
+ 17.46975 3 1 ack 40 ------- 0 3.0 2.0 78 290
- 17.46975 3 1 ack 40 ------- 0 3.0 2.0 78 290
r 17.48795 3 1 ack 40 ------- 0 3.0 2.0 78 290
+ 17.59295 3 1 ack 40 ------- 0 3.0 2.0 79 292
- 17.59295 3 1 ack 40 ------- 0 3.0 2.0 79 292
r 17.61115 3 1 ack 40 ------- 0 3.0 2.0 79 292
+ 18.08575 3 1 ack 40 ------- 0 3.0 2.0 79 300
- 18.08575 3 1 ack 40 ------- 0 3.0 2.0 79 300
r 18.10395 3 1 ack 40 ------- 0 3.0 2.0 79 300
+ 18.20895 3 1 ack 40 ------- 0 3.0 2.0 79 302
- 18.20895 3 1 ack 40 ------- 0 3.0 2.0 79 302
r 18.22715 3 1 ack 40 ------- 0 3.0 2.0 79 302
+ 18.70175 3 1 ack 40 ------- 0 3.0 2.0 79 307
- 18.70175 3 1 ack 40 ------- 0 3.0 2.0 79 307
r 18.71995 3 1 ack 40 ------- 0 3.0 2.0 79 307
+ 18.82495 3 1 ack 40 ------- 0 3.0 2.0 79 309
- 18.82495 3 1 ack 40 ------- 0 3.0 2.0 79 309
r 18.84315 3 1 ack 40 ------- 0 3.0 2.0 79 309
+ 18.94815 3 1 ack 40 ------- 0 3.0 2.0 79 310
- 18.94815 3 1 ack 40 ------- 0 3.0 2.0 79 310
r 18.96635 3 1 ack 40 ------- 0 3.0 2.0 79 310
+ 19.07135 3 1 ack 40 ------- 0 3.0 2.0 79 311
- 19.07135 3 1 ack 40 ------- 0 3.0 2.0 79 311
r 19.08955 3 1 ack 40 ------- 0 3.0 2.0 79 311
+ 19.19455 3 1 ack 40 ------- 0 3.0 2.0 79 312
- 19.19455 3 1 ack 40 ------- 0 3.0 2.0 79 312
r 19.21275 3 1 ack 40 ------- 0 3.0 2.0 79 312
+ 19.56415 3 1 ack 40 ------- 0 3.0 2.0 79 317
- 19.56415 3 1 ack 40 ------- 0 3.0 2.0 79 317
r 19.58235 3 1 ack 40 ------- 0 3.0 2.0 79 317
+ 19.68735 3 1 ack 40 ------- 0 3.0 2.0 79 318
- 19.68735 3 1 ack 40 ------- 0 3.0 2.0 79 318
r 19.70555 3 1 ack 40 ------- 0 3.0 2.0 79 318
+ 19.81055 3 1 ack 40 ------- 0 3.0 2.0 89 319
- 19.81055 3 1 ack 40 ------- 0 3.0 2.0 89 319
r 19.82875 3 1 ack 40 ------- 0 3.0 2.0 89 319
