+ 1.38415 5 1 ack 40 ------- 0 5.0 4.0 0 17
- 1.38415 5 1 ack 40 ------- 0 5.0 4.0 0 17
r 1.40235 5 1 ack 40 ------- 0 5.0 4.0 0 17
+ 1.97015 5 1 ack 40 ------- 0 5.0 4.0 1 28
- 1.97015 5 1 ack 40 ------- 0 5.0 4.0 1 28
r 1.98835 5 1 ack 40 ------- 0 5.0 4.0 1 28
+ 2.21655 5 1 ack 40 ------- 0 5.0 4.0 2 34
- 2.21655 5 1 ack 40 ------- 0 5.0 4.0 2 34
r 2.23475 5 1 ack 40 ------- 0 5.0 4.0 2 34
+ 2.58615 5 1 ack 40 ------- 0 5.0 4.0 2 40
- 2.58615 5 1 ack 40 ------- 0 5.0 4.0 2 40
r 2.60435 5 1 ack 40 ------- 0 5.0 4.0 2 40
+ 2.83255 5 1 ack 40 ------- 0 5.0 4.0 2 44
- 2.83255 5 1 ack 40 ------- 0 5.0 4.0 2 44
r 2.85075 5 1 ack 40 ------- 0 5.0 4.0 2 44
+ 3.07895 5 1 ack 40 ------- 0 5.0 4.0 3 49
- 3.07895 5 1 ack 40 ------- 0 5.0 4.0 3 49
r 3.09715 5 1 ack 40 ------- 0 5.0 4.0 3 49
+ 3.20215 5 1 ack 40 ------- 0 5.0 4.0 4 50
- 3.20215 5 1 ack 40 ------- 0 5.0 4.0 4 50
r 3.22035 5 1 ack 40 ------- 0 5.0 4.0 4 50
+ 3.57175 5 1 ack 40 ------- 0 5.0 4.0 5 56
- 3.57175 5 1 ack 40 ------- 0 5.0 4.0 5 56
r 3.58995 5 1 ack 40 ------- 0 5.0 4.0 5 56
+ 3.81815 5 1 ack 40 ------- 0 5.0 4.0 6 60
- 3.81815 5 1 ack 40 ------- 0 5.0 4.0 6 60
r 3.83635 5 1 ack 40 ------- 0 5.0 4.0 6 60
+ 4.18775 5 1 ack 40 ------- 0 5.0 4.0 7 67
- 4.18775 5 1 ack 40 ------- 0 5.0 4.0 7 67
r 4.20595 5 1 ack 40 ------- 0 5.0 4.0 7 67
+ 4.55735 5 1 ack 40 ------- 0 5.0 4.0 8 74
- 4.55735 5 1 ack 40 ------- 0 5.0 4.0 8 74
r 4.57555 5 1 ack 40 ------- 0 5.0 4.0 8 74
+ 4.80375 5 1 ack 40 ------- 0 5.0 4.0 9 78
- 4.80375 5 1 ack 40 ------- 0 5.0 4.0 9 78
r 4.82195 5 1 ack 40 ------- 0 5.0 4.0 9 78
+ 5.29655 5 1 ack 40 ------- 0 5.0 4.0 10 87
- 5.29655 5 1 ack 40 ------- 0 5.0 4.0 10 87
r 5.31475 5 1 ack 40 ------- 0 5.0 4.0 10 87
+ 5.41975 5 1 ack 40 ------- 0 5.0 4.0 11 89
- 5.41975 5 1 ack 40 ------- 0 5.0 4.0 11 89
r 5.43795 5 1 ack 40 ------- 0 5.0 4.0 11 89
+ 5.78935 5 1 ack 40 ------- 0 5.0 4.0 12 95
- 5.78935 5 1 ack 40 ------- 0 5.0 4.0 12 95
r 5.80755 5 1 ack 40 ------- 0 5.0 4.0 12 95
+ 6.03575 5 1 ack 40 ------- 0 5.0 4.0 13 100
- 6.03575 5 1 ack 40 ------- 0 5.0 4.0 13 100
r 6.05395 5 1 ack 40 ------- 0 5.0 4.0 13 100
+ 6.65175 5 1 ack 40 ------- 0 5.0 4.0 14 110
- 6.65175 5 1 ack 40 ------- 0 5.0 4.0 14 110
r 6.66995 5 1 ack 40 ------- 0 5.0 4.0 14 110
+ 6.77495 5 1 ack 40 ------- 0 5.0 4.0 15 112
- 6.77495 5 1 ack 40 ------- 0 5.0 4.0 15 112
r 6.79315 5 1 ack 40 ------- 0 5.0 4.0 15 112
+ 7.14455 5 1 ack 40 ------- 0 5.0 4.0 16 119
- 7.14455 5 1 ack 40 ------- 0 5.0 4.0 16 119
r 7.16275 5 1 ack 40 ------- 0 5.0 4.0 16 119
+ 7.26775 5 1 ack 40 ------- 0 5.0 4.0 17 121
- 7.26775 5 1 ack 40 ------- 0 5.0 4.0 17 121
r 7.28595 5 1 ack 40 ------- 0 5.0 4.0 17 121
+ 7.51415 5 1 ack 40 ------- 0 5.0 4.0 18 126
- 7.51415 5 1 ack 40 ------- 0 5.0 4.0 18 126
r 7.53235 5 1 ack 40 ------- 0 5.0 4.0 18 126
+ 8.13015 5 1 ack 40 ------- 0 5.0 4.0 19 136
- 8.13015 5 1 ack 40 ------- 0 5.0 4.0 19 136
r 8.14835 5 1 ack 40 ------- 0 5.0 4.0 19 136
+ 8.25335 5 1 ack 40 ------- 0 5.0 4.0 20 138
- 8.25335 5 1 ack 40 ------- 0 5.0 4.0 20 138
r 8.27155 5 1 ack 40 ------- 0 5.0 4.0 20 138
+ 8.74615 5 1 ack 40 ------- 0 5.0 4.0 20 147
- 8.74615 5 1 ack 40 ------- 0 5.0 4.0 20 147
r 8.76435 5 1 ack 40 ------- 0 5.0 4.0 20 147
+ 8.86935 5 1 ack 40 ------- 0 5.0 4.0 20 149
- 8.86935 5 1 ack 40 ------- 0 5.0 4.0 20 149
r 8.88755 5 1 ack 40 ------- 0 5.0 4.0 20 149
+ 8.99255 5 1 ack 40 ------- 0 5.0 4.0 20 151
- 8.99255 5 1 ack 40 ------- 0 5.0 4.0 20 151
r 9.01075 5 1 ack 40 ------- 0 5.0 4.0 20 151
+ 9.60855 5 1 ack 40 ------- 0 5.0 4.0 20 160
- 9.60855 5 1 ack 40 ------- 0 5.0 4.0 20 160
r 9.62675 5 1 ack 40 ------- 0 5.0 4.0 20 160
+ 9.73175 5 1 ack 40 ------- 0 5.0 4.0 20 161
- 9.73175 5 1 ack 40 ------- 0 5.0 4.0 20 161
r 9.74995 5 1 ack 40 ------- 0 5.0 4.0 20 161
+ 10.34775 5 1 ack 40 ------- 0 5.0 4.0 20 166
- 10.34775 5 1 ack 40 ------- 0 5.0 4.0 20 166
r 10.36595 5 1 ack 40 ------- 0 5.0 4.0 20 166
+ 10.47095 5 1 ack 40 ------- 0 5.0 4.0 26 167
- 10.47095 5 1 ack 40 ------- 0 5.0 4.0 26 167
r 10.48915 5 1 ack 40 ------- 0 5.0 4.0 26 167
+ 10.96375 5 1 ack 40 ------- 0 5.0 4.0 28 175
- 10.96375 5 1 ack 40 ------- 0 5.0 4.0 28 175
r 10.98195 5 1 ack 40 ------- 0 5.0 4.0 28 175
+ 11.08695 5 1 ack 40 ------- 0 5.0 4.0 28 179
- 11.08695 5 1 ack 40 ------- 0 5.0 4.0 28 179
r 11.10515 5 1 ack 40 ------- 0 5.0 4.0 28 179
+ 11.55615 5 1 ack 40 ------- 0 5.0 4.0 29 187
- 11.55615 5 1 ack 40 ------- 0 5.0 4.0 29 187
r 11.57435 5 1 ack 40 ------- 0 5.0 4.0 29 187
+ 11.67935 5 1 ack 40 ------- 0 5.0 4.0 30 188
- 11.67935 5 1 ack 40 ------- 0 5.0 4.0 30 188
r 11.69755 5 1 ack 40 ------- 0 5.0 4.0 30 188
+ 11.80255 5 1 ack 40 ------- 0 5.0 4.0 31 190
- 11.80255 5 1 ack 40 ------- 0 5.0 4.0 31 190
r 11.82075 5 1 ack 40 ------- 0 5.0 4.0 31 190
+ 12.04895 5 1 ack 40 ------- 0 5.0 4.0 32 194
- 12.04895 5 1 ack 40 ------- 0 5.0 4.0 32 194
r 12.06715 5 1 ack 40 ------- 0 5.0 4.0 32 194
+ 12.54175 5 1 ack 40 ------- 0 5.0 4.0 33 203
- 12.54175 5 1 ack 40 ------- 0 5.0 4.0 33 203
r 12.55995 5 1 ack 40 ------- 0 5.0 4.0 33 203
+ 12.66495 5 1 ack 40 ------- 0 5.0 4.0 34 205
- 12.66495 5 1 ack 40 ------- 0 5.0 4.0 34 205
r 12.68315 5 1 ack 40 ------- 0 5.0 4.0 34 205
+ 12.91135 5 1 ack 40 ------- 0 5.0 4.0 35 210
- 12.91135 5 1 ack 40 ------- 0 5.0 4.0 35 210
r 12.92955 5 1 ack 40 ------- 0 5.0 4.0 35 210
+ 13.03455 5 1 ack 40 ------- 0 5.0 4.0 36 212
- 13.03455 5 1 ack 40 ------- 0 5.0 4.0 36 212
r 13.05275 5 1 ack 40 ------- 0 5.0 4.0 36 212
+ 13.52735 5 1 ack 40 ------- 0 5.0 4.0 37 221
- 13.52735 5 1 ack 40 ------- 0 5.0 4.0 37 221
r 13.54555 5 1 ack 40 ------- 0 5.0 4.0 37 221
+ 13.65055 5 1 ack 40 ------- 0 5.0 4.0 38 223
- 13.65055 5 1 ack 40 ------- 0 5.0 4.0 38 223
r 13.66875 5 1 ack 40 ------- 0 5.0 4.0 38 223
+ 14.02015 5 1 ack 40 ------- 0 5.0 4.0 39 230
- 14.02015 5 1 ack 40 ------- 0 5.0 4.0 39 230
r 14.03835 5 1 ack 40 ------- 0 5.0 4.0 39 230
+ 14.14335 5 1 ack 40 ------- 0 5.0 4.0 40 232
- 14.14335 5 1 ack 40 ------- 0 5.0 4.0 40 232
r 14.16155 5 1 ack 40 ------- 0 5.0 4.0 40 232
+ 14.26655 5 1 ack 40 ------- 0 5.0 4.0 41 234
- 14.26655 5 1 ack 40 ------- 0 5.0 4.0 41 234
r 14.28475 5 1 ack 40 ------- 0 5.0 4.0 41 234
+ 14.75935 5 1 ack 40 ------- 0 5.0 4.0 42 242
- 14.75935 5 1 ack 40 ------- 0 5.0 4.0 42 242
r 14.77755 5 1 ack 40 ------- 0 5.0 4.0 42 242
+ 14.88255 5 1 ack 40 ------- 0 5.0 4.0 43 245
- 14.88255 5 1 ack 40 ------- 0 5.0 4.0 43 245
r 14.90075 5 1 ack 40 ------- 0 5.0 4.0 43 245
+ 15.37535 5 1 ack 40 ------- 0 5.0 4.0 44 253
- 15.37535 5 1 ack 40 ------- 0 5.0 4.0 44 253
r 15.39355 5 1 ack 40 ------- 0 5.0 4.0 44 253
+ 15.49855 5 1 ack 40 ------- 0 5.0 4.0 45 255
- 15.49855 5 1 ack 40 ------- 0 5.0 4.0 45 255
r 15.51675 5 1 ack 40 ------- 0 5.0 4.0 45 255
+ 15.62175 5 1 ack 40 ------- 0 5.0 4.0 46 257
- 15.62175 5 1 ack 40 ------- 0 5.0 4.0 46 257
r 15.63995 5 1 ack 40 ------- 0 5.0 4.0 46 257
+ 16.11455 5 1 ack 40 ------- 0 5.0 4.0 47 266
- 16.11455 5 1 ack 40 ------- 0 5.0 4.0 47 266
r 16.13275 5 1 ack 40 ------- 0 5.0 4.0 47 266
+ 16.23775 5 1 ack 40 ------- 0 5.0 4.0 48 268
- 16.23775 5 1 ack 40 ------- 0 5.0 4.0 48 268
r 16.25595 5 1 ack 40 ------- 0 5.0 4.0 48 268
+ 16.36095 5 1 ack 40 ------- 0 5.0 4.0 49 271
- 16.36095 5 1 ack 40 ------- 0 5.0 4.0 49 271
r 16.37915 5 1 ack 40 ------- 0 5.0 4.0 49 271
+ 16.85375 5 1 ack 40 ------- 0 5.0 4.0 50 279
- 16.85375 5 1 ack 40 ------- 0 5.0 4.0 50 279
r 16.87195 5 1 ack 40 ------- 0 5.0 4.0 50 279
+ 16.97695 5 1 ack 40 ------- 0 5.0 4.0 51 281
- 16.97695 5 1 ack 40 ------- 0 5.0 4.0 51 281
r 16.99515 5 1 ack 40 ------- 0 5.0 4.0 51 281
+ 17.10015 5 1 ack 40 ------- 0 5.0 4.0 52 283
- 17.10015 5 1 ack 40 ------- 0 5.0 4.0 52 283
r 17.11835 5 1 ack 40 ------- 0 5.0 4.0 52 283
+ 17.71615 5 1 ack 40 ------- 0 5.0 4.0 52 294
- 17.71615 5 1 ack 40 ------- 0 5.0 4.0 52 294
r 17.73435 5 1 ack 40 ------- 0 5.0 4.0 52 294
+ 17.83935 5 1 ack 40 ------- 0 5.0 4.0 52 296
- 17.83935 5 1 ack 40 ------- 0 5.0 4.0 52 296
r 17.85755 5 1 ack 40 ------- 0 5.0 4.0 52 296
+ 17.96255 5 1 ack 40 ------- 0 5.0 4.0 52 298
- 17.96255 5 1 ack 40 ------- 0 5.0 4.0 52 298
r 17.98075 5 1 ack 40 ------- 0 5.0 4.0 52 298
+ 18.33215 5 1 ack 40 ------- 0 5.0 4.0 52 304
- 18.33215 5 1 ack 40 ------- 0 5.0 4.0 52 304
r 18.35035 5 1 ack 40 ------- 0 5.0 4.0 52 304
+ 18.45535 5 1 ack 40 ------- 0 5.0 4.0 52 305
- 18.45535 5 1 ack 40 ------- 0 5.0 4.0 52 305
r 18.47355 5 1 ack 40 ------- 0 5.0 4.0 52 305
+ 18.57855 5 1 ack 40 ------- 0 5.0 4.0 52 306
- 18.57855 5 1 ack 40 ------- 0 5.0 4.0 52 306
r 18.59675 5 1 ack 40 ------- 0 5.0 4.0 52 306
+ 19.31775 5 1 ack 40 ------- 0 5.0 4.0 52 313
- 19.31775 5 1 ack 40 ------- 0 5.0 4.0 52 313
r 19.33595 5 1 ack 40 ------- 0 5.0 4.0 52 313
+ 19.44095 5 1 ack 40 ------- 0 5.0 4.0 59 314
- 19.44095 5 1 ack 40 ------- 0 5.0 4.0 59 314
r 19.45915 5 1 ack 40 ------- 0 5.0 4.0 59 314
+ 19.93375 5 1 ack 40 ------- 0 5.0 4.0 61 322
- 19.93375 5 1 ack 40 ------- 0 5.0 4.0 61 322
r 19.95195 5 1 ack 40 ------- 0 5.0 4.0 61 322
