V -t * -v 1.0a5 -a 0
A -t * -n 1 -p 0 -o 0x7fffffff -c 30 -a 1
A -t * -h 1 -m 1073741823 -s 0
c -t * -i 1 -n blue
n -t * -a 0 -s 0 -S UP -v circle -c black -i black
n -t * -a 1 -s 1 -S UP -v circle -c black -i black
n -t * -a 2 -s 2 -S UP -v circle -c black -i black
n -t * -a 3 -s 3 -S UP -v circle -c black -i black
l -t * -s 0 -d 2 -S UP -r 100000 -D 0.014999999999999999 -c black
l -t * -s 2 -d 3 -S UP -r 100000 -D 0.014999999999999999 -c black
l -t * -s 3 -d 1 -S UP -r 100000 -D 0.014999999999999999 -c black
q -t * -s 3 -d 2 -a 0.5
q -t * -s 2 -d 3 -a 0.5
+ -t 2.24076272150262 -s 0 -d 2 -p exp -e 40 -c 1 -i 0 -a 1 -x {0.0 1.0 0 ------- null}
- -t 2.24076272150262 -s 0 -d 2 -p exp -e 40 -c 1 -i 0 -a 1 -x {0.0 1.0 0 ------- null}
h -t 2.24076272150262 -s 0 -d 2 -p exp -e 40 -c 1 -i 0 -a 1 -x {0.0 1.0 -1 ------- null}
r -t 2.25896272150262 -s 0 -d 2 -p exp -e 40 -c 1 -i 0 -a 1 -x {0.0 1.0 0 ------- null}
+ -t 2.25896272150262 -s 2 -d 3 -p exp -e 40 -c 1 -i 0 -a 1 -x {0.0 1.0 0 ------- null}
- -t 2.25896272150262 -s 2 -d 3 -p exp -e 40 -c 1 -i 0 -a 1 -x {0.0 1.0 0 ------- null}
h -t 2.25896272150262 -s 2 -d 3 -p exp -e 40 -c 1 -i 0 -a 1 -x {0.0 1.0 -1 ------- null}
r -t 2.27716272150262 -s 2 -d 3 -p exp -e 40 -c 1 -i 0 -a 1 -x {0.0 1.0 0 ------- null}
+ -t 2.27716272150262 -s 3 -d 1 -p exp -e 40 -c 1 -i 0 -a 1 -x {0.0 1.0 0 ------- null}
- -t 2.27716272150262 -s 3 -d 1 -p exp -e 40 -c 1 -i 0 -a 1 -x {0.0 1.0 0 ------- null}
h -t 2.27716272150262 -s 3 -d 1 -p exp -e 40 -c 1 -i 0 -a 1 -x {0.0 1.0 -1 ------- null}
r -t 2.29536272150262 -s 3 -d 1 -p exp -e 40 -c 1 -i 0 -a 1 -x {0.0 1.0 0 ------- null}
+ -t 2.29536272150262 -s 1 -d 3 -p ack -e 40 -c 1 -i 1 -a 1 -x {1.0 0.0 0 ------- null}
- -t 2.29536272150262 -s 1 -d 3 -p ack -e 40 -c 1 -i 1 -a 1 -x {1.0 0.0 0 ------- null}
h -t 2.29536272150262 -s 1 -d 3 -p ack -e 40 -c 1 -i 1 -a 1 -x {1.0 0.0 -1 ------- null}
r -t 2.31356272150262 -s 1 -d 3 -p ack -e 40 -c 1 -i 1 -a 1 -x {1.0 0.0 0 ------- null}
+ -t 2.31356272150262 -s 3 -d 2 -p ack -e 40 -c 1 -i 1 -a 1 -x {1.0 0.0 0 ------- null}
- -t 2.31356272150262 -s 3 -d 2 -p ack -e 40 -c 1 -i 1 -a 1 -x {1.0 0.0 0 ------- null}
h -t 2.31356272150262 -s 3 -d 2 -p ack -e 40 -c 1 -i 1 -a 1 -x {1.0 0.0 -1 ------- null}
r -t 2.33176272150262 -s 3 -d 2 -p ack -e 40 -c 1 -i 1 -a 1 -x {1.0 0.0 0 ------- null}
+ -t 2.33176272150262 -s 2 -d 0 -p ack -e 40 -c 1 -i 1 -a 1 -x {1.0 0.0 0 ------- null}
- -t 2.33176272150262 -s 2 -d 0 -p ack -e 40 -c 1 -i 1 -a 1 -x {1.0 0.0 0 ------- null}
h -t 2.33176272150262 -s 2 -d 0 -p ack -e 40 -c 1 -i 1 -a 1 -x {1.0 0.0 -1 ------- null}
r -t 2.34996272150262 -s 2 -d 0 -p ack -e 40 -c 1 -i 1 -a 1 -x {1.0 0.0 0 ------- null}
+ -t 2.34996272150262 -s 0 -d 2 -p exp -e 1540 -c 1 -i 2 -a 1 -x {0.0 1.0 0 ------- null}
- -t 2.34996272150262 -s 0 -d 2 -p exp -e 1540 -c 1 -i 2 -a 1 -x {0.0 1.0 0 ------- null}
h -t 2.34996272150262 -s 0 -d 2 -p exp -e 1540 -c 1 -i 2 -a 1 -x {0.0 1.0 -1 ------- null}
+ -t 2.34996272150262 -s 0 -d 2 -p exp -e 1540 -c 1 -i 3 -a 1 -x {0.0 1.0 0 ------- null}
- -t 2.47316272150262 -s 0 -d 2 -p exp -e 1540 -c 1 -i 3 -a 1 -x {0.0 1.0 0 ------- null}
h -t 2.47316272150262 -s 0 -d 2 -p exp -e 1540 -c 1 -i 3 -a 1 -x {0.0 1.0 -1 ------- null}
r -t 2.48816272150262 -s 0 -d 2 -p exp -e 1540 -c 1 -i 2 -a 1 -x {0.0 1.0 0 ------- null}
+ -t 2.48816272150262 -s 2 -d 3 -p exp -e 1540 -c 1 -i 2 -a 1 -x {0.0 1.0 0 ------- null}
- -t 2.48816272150262 -s 2 -d 3 -p exp -e 1540 -c 1 -i 2 -a 1 -x {0.0 1.0 0 ------- null}
h -t 2.48816272150262 -s 2 -d 3 -p exp -e 1540 -c 1 -i 2 -a 1 -x {0.0 1.0 -1 ------- null}
r -t 2.61136272150262 -s 0 -d 2 -p exp -e 1540 -c 1 -i 3 -a 1 -x {0.0 1.0 0 ------- null}
+ -t 2.61136272150262 -s 2 -d 3 -p exp -e 1540 -c 1 -i 3 -a 1 -x {0.0 1.0 0 ------- null}
- -t 2.61136272150262 -s 2 -d 3 -p exp -e 1540 -c 1 -i 3 -a 1 -x {0.0 1.0 0 ------- null}
h -t 2.61136272150262 -s 2 -d 3 -p exp -e 1540 -c 1 -i 3 -a 1 -x {0.0 1.0 -1 ------- null}
r -t 2.62636272150262 -s 2 -d 3 -p exp -e 1540 -c 1 -i 2 -a 1 -x {0.0 1.0 0 ------- null}
+ -t 2.62636272150262 -s 3 -d 1 -p exp -e 1540 -c 1 -i 2 -a 1 -x {0.0 1.0 0 ------- null}
- -t 2.62636272150262 -s 3 -d 1 -p exp -e 1540 -c 1 -i 2 -a 1 -x {0.0 1.0 0 ------- null}
h -t 2.62636272150262 -s 3 -d 1 -p exp -e 1540 -c 1 -i 2 -a 1 -x {0.0 1.0 -1 ------- null}
+ -t 2.67996272150262 -s 0 -d 2 -p exp -e 1540 -c 1 -i 4 -a 1 -x {0.0 1.0 0 ---A--- null}
- -t 2.67996272150262 -s 0 -d 2 -p exp -e 1540 -c 1 -i 4 -a 1 -x {0.0 1.0 0 ---A--- null}
h -t 2.67996272150262 -s 0 -d 2 -p exp -e 1540 -c 1 -i 4 -a 1 -x {0.0 1.0 -1 ---A--- null}
r -t 2.74956272150262 -s 2 -d 3 -p exp -e 1540 -c 1 -i 3 -a 1 -x {0.0 1.0 0 ------- null}
+ -t 2.74956272150262 -s 3 -d 1 -p exp -e 1540 -c 1 -i 3 -a 1 -x {0.0 1.0 0 ------- null}
- -t 2.74956272150262 -s 3 -d 1 -p exp -e 1540 -c 1 -i 3 -a 1 -x {0.0 1.0 0 ------- null}
h -t 2.74956272150262 -s 3 -d 1 -p exp -e 1540 -c 1 -i 3 -a 1 -x {0.0 1.0 -1 ------- null}
r -t 2.76456272150262 -s 3 -d 1 -p exp -e 1540 -c 1 -i 2 -a 1 -x {0.0 1.0 0 ------- null}
+ -t 2.76456272150262 -s 1 -d 3 -p ack -e 40 -c 1 -i 5 -a 1 -x {1.0 0.0 1 ------- null}
- -t 2.76456272150262 -s 1 -d 3 -p ack -e 40 -c 1 -i 5 -a 1 -x {1.0 0.0 1 ------- null}
h -t 2.76456272150262 -s 1 -d 3 -p ack -e 40 -c 1 -i 5 -a 1 -x {1.0 0.0 -1 ------- null}
r -t 2.78276272150262 -s 1 -d 3 -p ack -e 40 -c 1 -i 5 -a 1 -x {1.0 0.0 1 ------- null}
+ -t 2.78276272150262 -s 3 -d 2 -p ack -e 40 -c 1 -i 5 -a 1 -x {1.0 0.0 1 ------- null}
- -t 2.78276272150262 -s 3 -d 2 -p ack -e 40 -c 1 -i 5 -a 1 -x {1.0 0.0 1 ------- null}
h -t 2.78276272150262 -s 3 -d 2 -p ack -e 40 -c 1 -i 5 -a 1 -x {1.0 0.0 -1 ------- null}
r -t 2.80096272150262 -s 3 -d 2 -p ack -e 40 -c 1 -i 5 -a 1 -x {1.0 0.0 1 ------- null}
+ -t 2.80096272150262 -s 2 -d 0 -p ack -e 40 -c 1 -i 5 -a 1 -x {1.0 0.0 1 ------- null}
- -t 2.80096272150262 -s 2 -d 0 -p ack -e 40 -c 1 -i 5 -a 1 -x {1.0 0.0 1 ------- null}
h -t 2.80096272150262 -s 2 -d 0 -p ack -e 40 -c 1 -i 5 -a 1 -x {1.0 0.0 -1 ------- null}
r -t 2.81816272150262 -s 0 -d 2 -p exp -e 1540 -c 1 -i 4 -a 1 -x {0.0 1.0 0 ---A--- null}
+ -t 2.81816272150262 -s 2 -d 3 -p exp -e 1540 -c 1 -i 4 -a 1 -x {0.0 1.0 0 ---A--- null}
- -t 2.81816272150262 -s 2 -d 3 -p exp -e 1540 -c 1 -i 4 -a 1 -x {0.0 1.0 0 ---A--- null}
h -t 2.81816272150262 -s 2 -d 3 -p exp -e 1540 -c 1 -i 4 -a 1 -x {0.0 1.0 -1 ---A--- null}
r -t 2.81916272150262 -s 2 -d 0 -p ack -e 40 -c 1 -i 5 -a 1 -x {1.0 0.0 1 ------- null}
+ -t 2.81916272150262 -s 0 -d 2 -p exp -e 1540 -c 1 -i 6 -a 1 -x {0.0 1.0 0 ------- null}
- -t 2.81916272150262 -s 0 -d 2 -p exp -e 1540 -c 1 -i 6 -a 1 -x {0.0 1.0 0 ------- null}
h -t 2.81916272150262 -s 0 -d 2 -p exp -e 1540 -c 1 -i 6 -a 1 -x {0.0 1.0 -1 ------- null}
+ -t 2.81916272150262 -s 0 -d 2 -p exp -e 1540 -c 1 -i 7 -a 1 -x {0.0 1.0 0 ------- null}
r -t 2.88776272150262 -s 3 -d 1 -p exp -e 1540 -c 1 -i 3 -a 1 -x {0.0 1.0 0 ------- null}
+ -t 2.88776272150262 -s 1 -d 3 -p ack -e 40 -c 1 -i 8 -a 1 -x {1.0 0.0 2 ------- null}
- -t 2.88776272150262 -s 1 -d 3 -p ack -e 40 -c 1 -i 8 -a 1 -x {1.0 0.0 2 ------- null}
h -t 2.88776272150262 -s 1 -d 3 -p ack -e 40 -c 1 -i 8 -a 1 -x {1.0 0.0 -1 ------- null}
r -t 2.90596272150262 -s 1 -d 3 -p ack -e 40 -c 1 -i 8 -a 1 -x {1.0 0.0 2 ------- null}
+ -t 2.90596272150262 -s 3 -d 2 -p ack -e 40 -c 1 -i 8 -a 1 -x {1.0 0.0 2 ------- null}
- -t 2.90596272150262 -s 3 -d 2 -p ack -e 40 -c 1 -i 8 -a 1 -x {1.0 0.0 2 ------- null}
h -t 2.90596272150262 -s 3 -d 2 -p ack -e 40 -c 1 -i 8 -a 1 -x {1.0 0.0 -1 ------- null}
r -t 2.92416272150262 -s 3 -d 2 -p ack -e 40 -c 1 -i 8 -a 1 -x {1.0 0.0 2 ------- null}
+ -t 2.92416272150262 -s 2 -d 0 -p ack -e 40 -c 1 -i 8 -a 1 -x {1.0 0.0 2 ------- null}
- -t 2.92416272150262 -s 2 -d 0 -p ack -e 40 -c 1 -i 8 -a 1 -x {1.0 0.0 2 ------- null}
h -t 2.92416272150262 -s 2 -d 0 -p ack -e 40 -c 1 -i 8 -a 1 -x {1.0 0.0 -1 ------- null}
- -t 2.94236272150262 -s 0 -d 2 -p exp -e 1540 -c 1 -i 7 -a 1 -x {0.0 1.0 0 ------- null}
h -t 2.94236272150262 -s 0 -d 2 -p exp -e 1540 -c 1 -i 7 -a 1 -x {0.0 1.0 -1 ------- null}
r -t 2.94236272150262 -s 2 -d 0 -p ack -e 40 -c 1 -i 8 -a 1 -x {1.0 0.0 2 ------- null}
+ -t 2.94236272150262 -s 0 -d 2 -p exp -e 1540 -c 1 -i 9 -a 1 -x {0.0 1.0 0 ------- null}
r -t 2.95636272150262 -s 2 -d 3 -p exp -e 1540 -c 1 -i 4 -a 1 -x {0.0 1.0 0 ---A--- null}
+ -t 2.95636272150262 -s 3 -d 1 -p exp -e 1540 -c 1 -i 4 -a 1 -x {0.0 1.0 0 ---A--- null}
- -t 2.95636272150262 -s 3 -d 1 -p exp -e 1540 -c 1 -i 4 -a 1 -x {0.0 1.0 0 ---A--- null}
h -t 2.95636272150262 -s 3 -d 1 -p exp -e 1540 -c 1 -i 4 -a 1 -x {0.0 1.0 -1 ---A--- null}
r -t 2.95736272150262 -s 0 -d 2 -p exp -e 1540 -c 1 -i 6 -a 1 -x {0.0 1.0 0 ------- null}
+ -t 2.95736272150262 -s 2 -d 3 -p exp -e 1540 -c 1 -i 6 -a 1 -x {0.0 1.0 0 ------- null}
- -t 2.95736272150262 -s 2 -d 3 -p exp -e 1540 -c 1 -i 6 -a 1 -x {0.0 1.0 0 ------- null}
h -t 2.95736272150262 -s 2 -d 3 -p exp -e 1540 -c 1 -i 6 -a 1 -x {0.0 1.0 -1 ------- null}
- -t 3.06556272150262 -s 0 -d 2 -p exp -e 1540 -c 1 -i 9 -a 1 -x {0.0 1.0 0 ------- null}
h -t 3.06556272150262 -s 0 -d 2 -p exp -e 1540 -c 1 -i 9 -a 1 -x {0.0 1.0 -1 ------- null}
r -t 3.08056272150262 -s 0 -d 2 -p exp -e 1540 -c 1 -i 7 -a 1 -x {0.0 1.0 0 ------- null}
+ -t 3.08056272150262 -s 2 -d 3 -p exp -e 1540 -c 1 -i 7 -a 1 -x {0.0 1.0 0 ------- null}
- -t 3.08056272150262 -s 2 -d 3 -p exp -e 1540 -c 1 -i 7 -a 1 -x {0.0 1.0 0 ------- null}
h -t 3.08056272150262 -s 2 -d 3 -p exp -e 1540 -c 1 -i 7 -a 1 -x {0.0 1.0 -1 ------- null}
r -t 3.09456272150262 -s 3 -d 1 -p exp -e 1540 -c 1 -i 4 -a 1 -x {0.0 1.0 0 ---A--- null}
+ -t 3.09456272150262 -s 1 -d 3 -p ack -e 40 -c 1 -i 10 -a 1 -x {1.0 0.0 2 ------- null}
- -t 3.09456272150262 -s 1 -d 3 -p ack -e 40 -c 1 -i 10 -a 1 -x {1.0 0.0 2 ------- null}
h -t 3.09456272150262 -s 1 -d 3 -p ack -e 40 -c 1 -i 10 -a 1 -x {1.0 0.0 -1 ------- null}
r -t 3.09556272150262 -s 2 -d 3 -p exp -e 1540 -c 1 -i 6 -a 1 -x {0.0 1.0 0 ------- null}
+ -t 3.09556272150262 -s 3 -d 1 -p exp -e 1540 -c 1 -i 6 -a 1 -x {0.0 1.0 0 ------- null}
- -t 3.09556272150262 -s 3 -d 1 -p exp -e 1540 -c 1 -i 6 -a 1 -x {0.0 1.0 0 ------- null}
h -t 3.09556272150262 -s 3 -d 1 -p exp -e 1540 -c 1 -i 6 -a 1 -x {0.0 1.0 -1 ------- null}
r -t 3.11276272150262 -s 1 -d 3 -p ack -e 40 -c 1 -i 10 -a 1 -x {1.0 0.0 2 ------- null}
+ -t 3.11276272150262 -s 3 -d 2 -p ack -e 40 -c 1 -i 10 -a 1 -x {1.0 0.0 2 ------- null}
- -t 3.11276272150262 -s 3 -d 2 -p ack -e 40 -c 1 -i 10 -a 1 -x {1.0 0.0 2 ------- null}
h -t 3.11276272150262 -s 3 -d 2 -p ack -e 40 -c 1 -i 10 -a 1 -x {1.0 0.0 -1 ------- null}
r -t 3.13096272150262 -s 3 -d 2 -p ack -e 40 -c 1 -i 10 -a 1 -x {1.0 0.0 2 ------- null}
+ -t 3.13096272150262 -s 2 -d 0 -p ack -e 40 -c 1 -i 10 -a 1 -x {1.0 0.0 2 ------- null}
- -t 3.13096272150262 -s 2 -d 0 -p ack -e 40 -c 1 -i 10 -a 1 -x {1.0 0.0 2 ------- null}
h -t 3.13096272150262 -s 2 -d 0 -p ack -e 40 -c 1 -i 10 -a 1 -x {1.0 0.0 -1 ------- null}
r -t 3.14916272150262 -s 2 -d 0 -p ack -e 40 -c 1 -i 10 -a 1 -x {1.0 0.0 2 ------- null}
+ -t 3.14916272150262 -s 0 -d 2 -p exp -e 1540 -c 1 -i 11 -a 1 -x {0.0 1.0 0 ------- null}
- -t 3.18876272150262 -s 0 -d 2 -p exp -e 1540 -c 1 -i 11 -a 1 -x {0.0 1.0 0 ------- null}
h -t 3.18876272150262 -s 0 -d 2 -p exp -e 1540 -c 1 -i 11 -a 1 -x {0.0 1.0 -1 ------- null}
r -t 3.20376272150262 -s 0 -d 2 -p exp -e 1540 -c 1 -i 9 -a 1 -x {0.0 1.0 0 ------- null}
+ -t 3.20376272150262 -s 2 -d 3 -p exp -e 1540 -c 1 -i 9 -a 1 -x {0.0 1.0 0 ------- null}
- -t 3.20376272150262 -s 2 -d 3 -p exp -e 1540 -c 1 -i 9 -a 1 -x {0.0 1.0 0 ------- null}
h -t 3.20376272150262 -s 2 -d 3 -p exp -e 1540 -c 1 -i 9 -a 1 -x {0.0 1.0 -1 ------- null}
r -t 3.21876272150262 -s 2 -d 3 -p exp -e 1540 -c 1 -i 7 -a 1 -x {0.0 1.0 0 ------- null}
+ -t 3.21876272150262 -s 3 -d 1 -p exp -e 1540 -c 1 -i 7 -a 1 -x {0.0 1.0 0 ------- null}
- -t 3.21876272150262 -s 3 -d 1 -p exp -e 1540 -c 1 -i 7 -a 1 -x {0.0 1.0 0 ------- null}
h -t 3.21876272150262 -s 3 -d 1 -p exp -e 1540 -c 1 -i 7 -a 1 -x {0.0 1.0 -1 ------- null}
r -t 3.23376272150262 -s 3 -d 1 -p exp -e 1540 -c 1 -i 6 -a 1 -x {0.0 1.0 0 ------- null}
+ -t 3.23376272150262 -s 1 -d 3 -p ack -e 40 -c 1 -i 12 -a 1 -x {1.0 0.0 2 ------- null}
- -t 3.23376272150262 -s 1 -d 3 -p ack -e 40 -c 1 -i 12 -a 1 -x {1.0 0.0 2 ------- null}
h -t 3.23376272150262 -s 1 -d 3 -p ack -e 40 -c 1 -i 12 -a 1 -x {1.0 0.0 -1 ------- null}
r -t 3.25196272150262 -s 1 -d 3 -p ack -e 40 -c 1 -i 12 -a 1 -x {1.0 0.0 2 ------- null}
+ -t 3.25196272150262 -s 3 -d 2 -p ack -e 40 -c 1 -i 12 -a 1 -x {1.0 0.0 2 ------- null}
- -t 3.25196272150262 -s 3 -d 2 -p ack -e 40 -c 1 -i 12 -a 1 -x {1.0 0.0 2 ------- null}
h -t 3.25196272150262 -s 3 -d 2 -p ack -e 40 -c 1 -i 12 -a 1 -x {1.0 0.0 -1 ------- null}
r -t 3.27016272150262 -s 3 -d 2 -p ack -e 40 -c 1 -i 12 -a 1 -x {1.0 0.0 2 ------- null}
+ -t 3.27016272150262 -s 2 -d 0 -p ack -e 40 -c 1 -i 12 -a 1 -x {1.0 0.0 2 ------- null}
- -t 3.27016272150262 -s 2 -d 0 -p ack -e 40 -c 1 -i 12 -a 1 -x {1.0 0.0 2 ------- null}
h -t 3.27016272150262 -s 2 -d 0 -p ack -e 40 -c 1 -i 12 -a 1 -x {1.0 0.0 -1 ------- null}
r -t 3.28836272150262 -s 2 -d 0 -p ack -e 40 -c 1 -i 12 -a 1 -x {1.0 0.0 2 ------- null}
+ -t 3.28836272150262 -s 0 -d 2 -p exp -e 1540 -c 1 -i 13 -a 1 -x {0.0 1.0 0 ------- null}
- -t 3.31196272150262 -s 0 -d 2 -p exp -e 1540 -c 1 -i 13 -a 1 -x {0.0 1.0 0 ------- null}
h -t 3.31196272150262 -s 0 -d 2 -p exp -e 1540 -c 1 -i 13 -a 1 -x {0.0 1.0 -1 ------- null}
r -t 3.32696272150262 -s 0 -d 2 -p exp -e 1540 -c 1 -i 11 -a 1 -x {0.0 1.0 0 ------- null}
+ -t 3.32696272150262 -s 2 -d 3 -p exp -e 1540 -c 1 -i 11 -a 1 -x {0.0 1.0 0 ------- null}
- -t 3.32696272150262 -s 2 -d 3 -p exp -e 1540 -c 1 -i 11 -a 1 -x {0.0 1.0 0 ------- null}
h -t 3.32696272150262 -s 2 -d 3 -p exp -e 1540 -c 1 -i 11 -a 1 -x {0.0 1.0 -1 ------- null}
r -t 3.34196272150262 -s 2 -d 3 -p exp -e 1540 -c 1 -i 9 -a 1 -x {0.0 1.0 0 ------- null}
+ -t 3.34196272150262 -s 3 -d 1 -p exp -e 1540 -c 1 -i 9 -a 1 -x {0.0 1.0 0 ------- null}
- -t 3.34196272150262 -s 3 -d 1 -p exp -e 1540 -c 1 -i 9 -a 1 -x {0.0 1.0 0 ------- null}
h -t 3.34196272150262 -s 3 -d 1 -p exp -e 1540 -c 1 -i 9 -a 1 -x {0.0 1.0 -1 ------- null}
r -t 3.35696272150262 -s 3 -d 1 -p exp -e 1540 -c 1 -i 7 -a 1 -x {0.0 1.0 0 ------- null}
+ -t 3.35696272150262 -s 1 -d 3 -p ack -e 40 -c 1 -i 14 -a 1 -x {1.0 0.0 3 ------- null}
- -t 3.35696272150262 -s 1 -d 3 -p ack -e 40 -c 1 -i 14 -a 1 -x {1.0 0.0 3 ------- null}
h -t 3.35696272150262 -s 1 -d 3 -p ack -e 40 -c 1 -i 14 -a 1 -x {1.0 0.0 -1 ------- null}
r -t 3.37516272150262 -s 1 -d 3 -p ack -e 40 -c 1 -i 14 -a 1 -x {1.0 0.0 3 ------- null}
+ -t 3.37516272150262 -s 3 -d 2 -p ack -e 40 -c 1 -i 14 -a 1 -x {1.0 0.0 3 ------- null}
- -t 3.37516272150262 -s 3 -d 2 -p ack -e 40 -c 1 -i 14 -a 1 -x {1.0 0.0 3 ------- null}
h -t 3.37516272150262 -s 3 -d 2 -p ack -e 40 -c 1 -i 14 -a 1 -x {1.0 0.0 -1 ------- null}
r -t 3.39336272150262 -s 3 -d 2 -p ack -e 40 -c 1 -i 14 -a 1 -x {1.0 0.0 3 ------- null}
+ -t 3.39336272150262 -s 2 -d 0 -p ack -e 40 -c 1 -i 14 -a 1 -x {1.0 0.0 3 ------- null}
- -t 3.39336272150262 -s 2 -d 0 -p ack -e 40 -c 1 -i 14 -a 1 -x {1.0 0.0 3 ------- null}
h -t 3.39336272150262 -s 2 -d 0 -p ack -e 40 -c 1 -i 14 -a 1 -x {1.0 0.0 -1 ------- null}
r -t 3.41156272150262 -s 2 -d 0 -p ack -e 40 -c 1 -i 14 -a 1 -x {1.0 0.0 3 ------- null}
r -t 3.45016272150262 -s 0 -d 2 -p exp -e 1540 -c 1 -i 13 -a 1 -x {0.0 1.0 0 ------- null}
+ -t 3.45016272150262 -s 2 -d 3 -p exp -e 1540 -c 1 -i 13 -a 1 -x {0.0 1.0 0 ------- null}
- -t 3.45016272150262 -s 2 -d 3 -p exp -e 1540 -c 1 -i 13 -a 1 -x {0.0 1.0 0 ------- null}
h -t 3.45016272150262 -s 2 -d 3 -p exp -e 1540 -c 1 -i 13 -a 1 -x {0.0 1.0 -1 ------- null}
r -t 3.46516272150262 -s 2 -d 3 -p exp -e 1540 -c 1 -i 11 -a 1 -x {0.0 1.0 0 ------- null}
+ -t 3.46516272150262 -s 3 -d 1 -p exp -e 1540 -c 1 -i 11 -a 1 -x {0.0 1.0 0 ------- null}
- -t 3.46516272150262 -s 3 -d 1 -p exp -e 1540 -c 1 -i 11 -a 1 -x {0.0 1.0 0 ------- null}
h -t 3.46516272150262 -s 3 -d 1 -p exp -e 1540 -c 1 -i 11 -a 1 -x {0.0 1.0 -1 ------- null}
r -t 3.48016272150262 -s 3 -d 1 -p exp -e 1540 -c 1 -i 9 -a 1 -x {0.0 1.0 0 ------- null}
+ -t 3.48016272150262 -s 1 -d 3 -p ack -e 40 -c 1 -i 15 -a 1 -x {1.0 0.0 4 ------- null}
- -t 3.48016272150262 -s 1 -d 3 -p ack -e 40 -c 1 -i 15 -a 1 -x {1.0 0.0 4 ------- null}
h -t 3.48016272150262 -s 1 -d 3 -p ack -e 40 -c 1 -i 15 -a 1 -x {1.0 0.0 -1 ------- null}
r -t 3.49836272150262 -s 1 -d 3 -p ack -e 40 -c 1 -i 15 -a 1 -x {1.0 0.0 4 ------- null}
+ -t 3.49836272150262 -s 3 -d 2 -p ack -e 40 -c 1 -i 15 -a 1 -x {1.0 0.0 4 ------- null}
- -t 3.49836272150262 -s 3 -d 2 -p ack -e 40 -c 1 -i 15 -a 1 -x {1.0 0.0 4 ------- null}
h -t 3.49836272150262 -s 3 -d 2 -p ack -e 40 -c 1 -i 15 -a 1 -x {1.0 0.0 -1 ------- null}
r -t 3.51656272150262 -s 3 -d 2 -p ack -e 40 -c 1 -i 15 -a 1 -x {1.0 0.0 4 ------- null}
+ -t 3.51656272150262 -s 2 -d 0 -p ack -e 40 -c 1 -i 15 -a 1 -x {1.0 0.0 4 ------- null}
- -t 3.51656272150262 -s 2 -d 0 -p ack -e 40 -c 1 -i 15 -a 1 -x {1.0 0.0 4 ------- null}
h -t 3.51656272150262 -s 2 -d 0 -p ack -e 40 -c 1 -i 15 -a 1 -x {1.0 0.0 -1 ------- null}
r -t 3.53476272150262 -s 2 -d 0 -p ack -e 40 -c 1 -i 15 -a 1 -x {1.0 0.0 4 ------- null}
+ -t 3.53476272150262 -s 0 -d 2 -p exp -e 1540 -c 1 -i 16 -a 1 -x {0.0 1.0 0 ------- null}
- -t 3.53476272150262 -s 0 -d 2 -p exp -e 1540 -c 1 -i 16 -a 1 -x {0.0 1.0 0 ------- null}
h -t 3.53476272150262 -s 0 -d 2 -p exp -e 1540 -c 1 -i 16 -a 1 -x {0.0 1.0 -1 ------- null}
r -t 3.58836272150262 -s 2 -d 3 -p exp -e 1540 -c 1 -i 13 -a 1 -x {0.0 1.0 0 ------- null}
+ -t 3.58836272150262 -s 3 -d 1 -p exp -e 1540 -c 1 -i 13 -a 1 -x {0.0 1.0 0 ------- null}
- -t 3.58836272150262 -s 3 -d 1 -p exp -e 1540 -c 1 -i 13 -a 1 -x {0.0 1.0 0 ------- null}
h -t 3.58836272150262 -s 3 -d 1 -p exp -e 1540 -c 1 -i 13 -a 1 -x {0.0 1.0 -1 ------- null}
r -t 3.60336272150262 -s 3 -d 1 -p exp -e 1540 -c 1 -i 11 -a 1 -x {0.0 1.0 0 ------- null}
+ -t 3.60336272150262 -s 1 -d 3 -p ack -e 40 -c 1 -i 17 -a 1 -x {1.0 0.0 5 ------- null}
- -t 3.60336272150262 -s 1 -d 3 -p ack -e 40 -c 1 -i 17 -a 1 -x {1.0 0.0 5 ------- null}
h -t 3.60336272150262 -s 1 -d 3 -p ack -e 40 -c 1 -i 17 -a 1 -x {1.0 0.0 -1 ------- null}
r -t 3.62156272150262 -s 1 -d 3 -p ack -e 40 -c 1 -i 17 -a 1 -x {1.0 0.0 5 ------- null}
+ -t 3.62156272150262 -s 3 -d 2 -p ack -e 40 -c 1 -i 17 -a 1 -x {1.0 0.0 5 ------- null}
- -t 3.62156272150262 -s 3 -d 2 -p ack -e 40 -c 1 -i 17 -a 1 -x {1.0 0.0 5 ------- null}
h -t 3.62156272150262 -s 3 -d 2 -p ack -e 40 -c 1 -i 17 -a 1 -x {1.0 0.0 -1 ------- null}
r -t 3.63976272150262 -s 3 -d 2 -p ack -e 40 -c 1 -i 17 -a 1 -x {1.0 0.0 5 ------- null}
+ -t 3.63976272150262 -s 2 -d 0 -p ack -e 40 -c 1 -i 17 -a 1 -x {1.0 0.0 5 ------- null}
- -t 3.63976272150262 -s 2 -d 0 -p ack -e 40 -c 1 -i 17 -a 1 -x {1.0 0.0 5 ------- null}
h -t 3.63976272150262 -s 2 -d 0 -p ack -e 40 -c 1 -i 17 -a 1 -x {1.0 0.0 -1 ------- null}
r -t 3.65796272150262 -s 2 -d 0 -p ack -e 40 -c 1 -i 17 -a 1 -x {1.0 0.0 5 ------- null}
+ -t 3.65796272150262 -s 0 -d 2 -p exp -e 1540 -c 1 -i 18 -a 1 -x {0.0 1.0 0 ------- null}
- -t 3.65796272150262 -s 0 -d 2 -p exp -e 1540 -c 1 -i 18 -a 1 -x {0.0 1.0 0 ------- null}
h -t 3.65796272150262 -s 0 -d 2 -p exp -e 1540 -c 1 -i 18 -a 1 -x {0.0 1.0 -1 ------- null}
r -t 3.67296272150262 -s 0 -d 2 -p exp -e 1540 -c 1 -i 16 -a 1 -x {0.0 1.0 0 ------- null}
+ -t 3.67296272150262 -s 2 -d 3 -p exp -e 1540 -c 1 -i 16 -a 1 -x {0.0 1.0 0 ------- null}
- -t 3.67296272150262 -s 2 -d 3 -p exp -e 1540 -c 1 -i 16 -a 1 -x {0.0 1.0 0 ------- null}
h -t 3.67296272150262 -s 2 -d 3 -p exp -e 1540 -c 1 -i 16 -a 1 -x {0.0 1.0 -1 ------- null}
r -t 3.72656272150262 -s 3 -d 1 -p exp -e 1540 -c 1 -i 13 -a 1 -x {0.0 1.0 0 ------- null}
+ -t 3.72656272150262 -s 1 -d 3 -p ack -e 40 -c 1 -i 19 -a 1 -x {1.0 0.0 6 ------- null}
- -t 3.72656272150262 -s 1 -d 3 -p ack -e 40 -c 1 -i 19 -a 1 -x {1.0 0.0 6 ------- null}
h -t 3.72656272150262 -s 1 -d 3 -p ack -e 40 -c 1 -i 19 -a 1 -x {1.0 0.0 -1 ------- null}
r -t 3.74476272150262 -s 1 -d 3 -p ack -e 40 -c 1 -i 19 -a 1 -x {1.0 0.0 6 ------- null}
+ -t 3.74476272150262 -s 3 -d 2 -p ack -e 40 -c 1 -i 19 -a 1 -x {1.0 0.0 6 ------- null}
- -t 3.74476272150262 -s 3 -d 2 -p ack -e 40 -c 1 -i 19 -a 1 -x {1.0 0.0 6 ------- null}
h -t 3.74476272150262 -s 3 -d 2 -p ack -e 40 -c 1 -i 19 -a 1 -x {1.0 0.0 -1 ------- null}
r -t 3.76296272150262 -s 3 -d 2 -p ack -e 40 -c 1 -i 19 -a 1 -x {1.0 0.0 6 ------- null}
+ -t 3.76296272150262 -s 2 -d 0 -p ack -e 40 -c 1 -i 19 -a 1 -x {1.0 0.0 6 ------- null}
- -t 3.76296272150262 -s 2 -d 0 -p ack -e 40 -c 1 -i 19 -a 1 -x {1.0 0.0 6 ------- null}
h -t 3.76296272150262 -s 2 -d 0 -p ack -e 40 -c 1 -i 19 -a 1 -x {1.0 0.0 -1 ------- null}
r -t 3.78116272150262 -s 2 -d 0 -p ack -e 40 -c 1 -i 19 -a 1 -x {1.0 0.0 6 ------- null}
+ -t 3.78116272150262 -s 0 -d 2 -p exp -e 1540 -c 1 -i 20 -a 1 -x {0.0 1.0 0 ------- null}
- -t 3.78116272150262 -s 0 -d 2 -p exp -e 1540 -c 1 -i 20 -a 1 -x {0.0 1.0 0 ------- null}
h -t 3.78116272150262 -s 0 -d 2 -p exp -e 1540 -c 1 -i 20 -a 1 -x {0.0 1.0 -1 ------- null}
r -t 3.79616272150262 -s 0 -d 2 -p exp -e 1540 -c 1 -i 18 -a 1 -x {0.0 1.0 0 ------- null}
+ -t 3.79616272150262 -s 2 -d 3 -p exp -e 1540 -c 1 -i 18 -a 1 -x {0.0 1.0 0 ------- null}
- -t 3.79616272150262 -s 2 -d 3 -p exp -e 1540 -c 1 -i 18 -a 1 -x {0.0 1.0 0 ------- null}
h -t 3.79616272150262 -s 2 -d 3 -p exp -e 1540 -c 1 -i 18 -a 1 -x {0.0 1.0 -1 ------- null}
r -t 3.81116272150262 -s 2 -d 3 -p exp -e 1540 -c 1 -i 16 -a 1 -x {0.0 1.0 0 ------- null}
+ -t 3.81116272150262 -s 3 -d 1 -p exp -e 1540 -c 1 -i 16 -a 1 -x {0.0 1.0 0 ------- null}
- -t 3.81116272150262 -s 3 -d 1 -p exp -e 1540 -c 1 -i 16 -a 1 -x {0.0 1.0 0 ------- null}
h -t 3.81116272150262 -s 3 -d 1 -p exp -e 1540 -c 1 -i 16 -a 1 -x {0.0 1.0 -1 ------- null}
r -t 3.91936272150262 -s 0 -d 2 -p exp -e 1540 -c 1 -i 20 -a 1 -x {0.0 1.0 0 ------- null}
+ -t 3.91936272150262 -s 2 -d 3 -p exp -e 1540 -c 1 -i 20 -a 1 -x {0.0 1.0 0 ------- null}
- -t 3.91936272150262 -s 2 -d 3 -p exp -e 1540 -c 1 -i 20 -a 1 -x {0.0 1.0 0 ------- null}
h -t 3.91936272150262 -s 2 -d 3 -p exp -e 1540 -c 1 -i 20 -a 1 -x {0.0 1.0 -1 ------- null}
r -t 3.93436272150262 -s 2 -d 3 -p exp -e 1540 -c 1 -i 18 -a 1 -x {0.0 1.0 0 ------- null}
+ -t 3.93436272150262 -s 3 -d 1 -p exp -e 1540 -c 1 -i 18 -a 1 -x {0.0 1.0 0 ------- null}
- -t 3.93436272150262 -s 3 -d 1 -p exp -e 1540 -c 1 -i 18 -a 1 -x {0.0 1.0 0 ------- null}
h -t 3.93436272150262 -s 3 -d 1 -p exp -e 1540 -c 1 -i 18 -a 1 -x {0.0 1.0 -1 ------- null}
r -t 3.94936272150262 -s 3 -d 1 -p exp -e 1540 -c 1 -i 16 -a 1 -x {0.0 1.0 0 ------- null}
+ -t 3.94936272150262 -s 1 -d 3 -p ack -e 40 -c 1 -i 21 -a 1 -x {1.0 0.0 7 ------- null}
- -t 3.94936272150262 -s 1 -d 3 -p ack -e 40 -c 1 -i 21 -a 1 -x {1.0 0.0 7 ------- null}
h -t 3.94936272150262 -s 1 -d 3 -p ack -e 40 -c 1 -i 21 -a 1 -x {1.0 0.0 -1 ------- null}
r -t 3.96756272150262 -s 1 -d 3 -p ack -e 40 -c 1 -i 21 -a 1 -x {1.0 0.0 7 ------- null}
+ -t 3.96756272150262 -s 3 -d 2 -p ack -e 40 -c 1 -i 21 -a 1 -x {1.0 0.0 7 ------- null}
- -t 3.96756272150262 -s 3 -d 2 -p ack -e 40 -c 1 -i 21 -a 1 -x {1.0 0.0 7 ------- null}
h -t 3.96756272150262 -s 3 -d 2 -p ack -e 40 -c 1 -i 21 -a 1 -x {1.0 0.0 -1 ------- null}
r -t 3.98576272150262 -s 3 -d 2 -p ack -e 40 -c 1 -i 21 -a 1 -x {1.0 0.0 7 ------- null}
+ -t 3.98576272150262 -s 2 -d 0 -p ack -e 40 -c 1 -i 21 -a 1 -x {1.0 0.0 7 ------- null}
- -t 3.98576272150262 -s 2 -d 0 -p ack -e 40 -c 1 -i 21 -a 1 -x {1.0 0.0 7 ------- null}
h -t 3.98576272150262 -s 2 -d 0 -p ack -e 40 -c 1 -i 21 -a 1 -x {1.0 0.0 -1 ------- null}
r -t 4.00396272150262 -s 2 -d 0 -p ack -e 40 -c 1 -i 21 -a 1 -x {1.0 0.0 7 ------- null}
+ -t 4.00396272150262 -s 0 -d 2 -p exp -e 1540 -c 1 -i 22 -a 1 -x {0.0 1.0 0 ------- null}
- -t 4.00396272150262 -s 0 -d 2 -p exp -e 1540 -c 1 -i 22 -a 1 -x {0.0 1.0 0 ------- null}
h -t 4.00396272150262 -s 0 -d 2 -p exp -e 1540 -c 1 -i 22 -a 1 -x {0.0 1.0 -1 ------- null}
+ -t 4.00396272150262 -s 0 -d 2 -p exp -e 1540 -c 1 -i 23 -a 1 -x {0.0 1.0 0 ------- null}
r -t 4.05756272150262 -s 2 -d 3 -p exp -e 1540 -c 1 -i 20 -a 1 -x {0.0 1.0 0 ------- null}
+ -t 4.05756272150262 -s 3 -d 1 -p exp -e 1540 -c 1 -i 20 -a 1 -x {0.0 1.0 0 ------- null}
- -t 4.05756272150262 -s 3 -d 1 -p exp -e 1540 -c 1 -i 20 -a 1 -x {0.0 1.0 0 ------- null}
h -t 4.05756272150262 -s 3 -d 1 -p exp -e 1540 -c 1 -i 20 -a 1 -x {0.0 1.0 -1 ------- null}
r -t 4.07256272150262 -s 3 -d 1 -p exp -e 1540 -c 1 -i 18 -a 1 -x {0.0 1.0 0 ------- null}
+ -t 4.07256272150262 -s 1 -d 3 -p ack -e 40 -c 1 -i 24 -a 1 -x {1.0 0.0 8 ------- null}
- -t 4.07256272150262 -s 1 -d 3 -p ack -e 40 -c 1 -i 24 -a 1 -x {1.0 0.0 8 ------- null}
h -t 4.07256272150262 -s 1 -d 3 -p ack -e 40 -c 1 -i 24 -a 1 -x {1.0 0.0 -1 ------- null}
r -t 4.09076272150262 -s 1 -d 3 -p ack -e 40 -c 1 -i 24 -a 1 -x {1.0 0.0 8 ------- null}
+ -t 4.09076272150262 -s 3 -d 2 -p ack -e 40 -c 1 -i 24 -a 1 -x {1.0 0.0 8 ------- null}
- -t 4.09076272150262 -s 3 -d 2 -p ack -e 40 -c 1 -i 24 -a 1 -x {1.0 0.0 8 ------- null}
h -t 4.09076272150262 -s 3 -d 2 -p ack -e 40 -c 1 -i 24 -a 1 -x {1.0 0.0 -1 ------- null}
r -t 4.10896272150262 -s 3 -d 2 -p ack -e 40 -c 1 -i 24 -a 1 -x {1.0 0.0 8 ------- null}
+ -t 4.10896272150262 -s 2 -d 0 -p ack -e 40 -c 1 -i 24 -a 1 -x {1.0 0.0 8 ------- null}
- -t 4.10896272150262 -s 2 -d 0 -p ack -e 40 -c 1 -i 24 -a 1 -x {1.0 0.0 8 ------- null}
h -t 4.10896272150262 -s 2 -d 0 -p ack -e 40 -c 1 -i 24 -a 1 -x {1.0 0.0 -1 ------- null}
- -t 4.12716272150262 -s 0 -d 2 -p exp -e 1540 -c 1 -i 23 -a 1 -x {0.0 1.0 0 ------- null}
h -t 4.12716272150262 -s 0 -d 2 -p exp -e 1540 -c 1 -i 23 -a 1 -x {0.0 1.0 -1 ------- null}
r -t 4.12716272150262 -s 2 -d 0 -p ack -e 40 -c 1 -i 24 -a 1 -x {1.0 0.0 8 ------- null}
+ -t 4.12716272150262 -s 0 -d 2 -p exp -e 1540 -c 1 -i 25 -a 1 -x {0.0 1.0 0 ------- null}
r -t 4.14216272150262 -s 0 -d 2 -p exp -e 1540 -c 1 -i 22 -a 1 -x {0.0 1.0 0 ------- null}
+ -t 4.14216272150262 -s 2 -d 3 -p exp -e 1540 -c 1 -i 22 -a 1 -x {0.0 1.0 0 ------- null}
- -t 4.14216272150262 -s 2 -d 3 -p exp -e 1540 -c 1 -i 22 -a 1 -x {0.0 1.0 0 ------- null}
h -t 4.14216272150262 -s 2 -d 3 -p exp -e 1540 -c 1 -i 22 -a 1 -x {0.0 1.0 -1 ------- null}
r -t 4.19576272150262 -s 3 -d 1 -p exp -e 1540 -c 1 -i 20 -a 1 -x {0.0 1.0 0 ------- null}
+ -t 4.19576272150262 -s 1 -d 3 -p ack -e 40 -c 1 -i 26 -a 1 -x {1.0 0.0 9 ------- null}
- -t 4.19576272150262 -s 1 -d 3 -p ack -e 40 -c 1 -i 26 -a 1 -x {1.0 0.0 9 ------- null}
h -t 4.19576272150262 -s 1 -d 3 -p ack -e 40 -c 1 -i 26 -a 1 -x {1.0 0.0 -1 ------- null}
r -t 4.21396272150262 -s 1 -d 3 -p ack -e 40 -c 1 -i 26 -a 1 -x {1.0 0.0 9 ------- null}
+ -t 4.21396272150262 -s 3 -d 2 -p ack -e 40 -c 1 -i 26 -a 1 -x {1.0 0.0 9 ------- null}
- -t 4.21396272150262 -s 3 -d 2 -p ack -e 40 -c 1 -i 26 -a 1 -x {1.0 0.0 9 ------- null}
h -t 4.21396272150262 -s 3 -d 2 -p ack -e 40 -c 1 -i 26 -a 1 -x {1.0 0.0 -1 ------- null}
r -t 4.23216272150262 -s 3 -d 2 -p ack -e 40 -c 1 -i 26 -a 1 -x {1.0 0.0 9 ------- null}
+ -t 4.23216272150262 -s 2 -d 0 -p ack -e 40 -c 1 -i 26 -a 1 -x {1.0 0.0 9 ------- null}
- -t 4.23216272150262 -s 2 -d 0 -p ack -e 40 -c 1 -i 26 -a 1 -x {1.0 0.0 9 ------- null}
h -t 4.23216272150262 -s 2 -d 0 -p ack -e 40 -c 1 -i 26 -a 1 -x {1.0 0.0 -1 ------- null}
- -t 4.25036272150262 -s 0 -d 2 -p exp -e 1540 -c 1 -i 25 -a 1 -x {0.0 1.0 0 ------- null}
h -t 4.25036272150262 -s 0 -d 2 -p exp -e 1540 -c 1 -i 25 -a 1 -x {0.0 1.0 -1 ------- null}
r -t 4.25036272150262 -s 2 -d 0 -p ack -e 40 -c 1 -i 26 -a 1 -x {1.0 0.0 9 ------- null}
+ -t 4.25036272150262 -s 0 -d 2 -p exp -e 1540 -c 1 -i 27 -a 1 -x {0.0 1.0 0 ------- null}
r -t 4.26536272150262 -s 0 -d 2 -p exp -e 1540 -c 1 -i 23 -a 1 -x {0.0 1.0 0 ------- null}
+ -t 4.26536272150262 -s 2 -d 3 -p exp -e 1540 -c 1 -i 23 -a 1 -x {0.0 1.0 0 ------- null}
- -t 4.26536272150262 -s 2 -d 3 -p exp -e 1540 -c 1 -i 23 -a 1 -x {0.0 1.0 0 ------- null}
h -t 4.26536272150262 -s 2 -d 3 -p exp -e 1540 -c 1 -i 23 -a 1 -x {0.0 1.0 -1 ------- null}
r -t 4.28036272150262 -s 2 -d 3 -p exp -e 1540 -c 1 -i 22 -a 1 -x {0.0 1.0 0 ------- null}
+ -t 4.28036272150262 -s 3 -d 1 -p exp -e 1540 -c 1 -i 22 -a 1 -x {0.0 1.0 0 ------- null}
- -t 4.28036272150262 -s 3 -d 1 -p exp -e 1540 -c 1 -i 22 -a 1 -x {0.0 1.0 0 ------- null}
h -t 4.28036272150262 -s 3 -d 1 -p exp -e 1540 -c 1 -i 22 -a 1 -x {0.0 1.0 -1 ------- null}
- -t 4.37356272150262 -s 0 -d 2 -p exp -e 1540 -c 1 -i 27 -a 1 -x {0.0 1.0 0 ------- null}
h -t 4.37356272150262 -s 0 -d 2 -p exp -e 1540 -c 1 -i 27 -a 1 -x {0.0 1.0 -1 ------- null}
r -t 4.38856272150262 -s 0 -d 2 -p exp -e 1540 -c 1 -i 25 -a 1 -x {0.0 1.0 0 ------- null}
+ -t 4.38856272150262 -s 2 -d 3 -p exp -e 1540 -c 1 -i 25 -a 1 -x {0.0 1.0 0 ------- null}
- -t 4.38856272150262 -s 2 -d 3 -p exp -e 1540 -c 1 -i 25 -a 1 -x {0.0 1.0 0 ------- null}
h -t 4.38856272150262 -s 2 -d 3 -p exp -e 1540 -c 1 -i 25 -a 1 -x {0.0 1.0 -1 ------- null}
r -t 4.40356272150262 -s 2 -d 3 -p exp -e 1540 -c 1 -i 23 -a 1 -x {0.0 1.0 0 ------- null}
+ -t 4.40356272150262 -s 3 -d 1 -p exp -e 1540 -c 1 -i 23 -a 1 -x {0.0 1.0 0 ------- null}
- -t 4.40356272150262 -s 3 -d 1 -p exp -e 1540 -c 1 -i 23 -a 1 -x {0.0 1.0 0 ------- null}
h -t 4.40356272150262 -s 3 -d 1 -p exp -e 1540 -c 1 -i 23 -a 1 -x {0.0 1.0 -1 ------- null}
r -t 4.41856272150262 -s 3 -d 1 -p exp -e 1540 -c 1 -i 22 -a 1 -x {0.0 1.0 0 ------- null}
+ -t 4.41856272150262 -s 1 -d 3 -p ack -e 40 -c 1 -i 28 -a 1 -x {1.0 0.0 10 ------- null}
- -t 4.41856272150262 -s 1 -d 3 -p ack -e 40 -c 1 -i 28 -a 1 -x {1.0 0.0 10 ------- null}
h -t 4.41856272150262 -s 1 -d 3 -p ack -e 40 -c 1 -i 28 -a 1 -x {1.0 0.0 -1 ------- null}
r -t 4.43676272150262 -s 1 -d 3 -p ack -e 40 -c 1 -i 28 -a 1 -x {1.0 0.0 10 ------- null}
+ -t 4.43676272150262 -s 3 -d 2 -p ack -e 40 -c 1 -i 28 -a 1 -x {1.0 0.0 10 ------- null}
- -t 4.43676272150262 -s 3 -d 2 -p ack -e 40 -c 1 -i 28 -a 1 -x {1.0 0.0 10 ------- null}