+ 2.240763 0 2 exp 40 ------- 1 0.0 1.0 0 0
- 2.240763 0 2 exp 40 ------- 1 0.0 1.0 0 0
r 2.258963 0 2 exp 40 ------- 1 0.0 1.0 0 0
+ 2.349963 0 2 exp 1540 ------- 1 0.0 1.0 0 2
- 2.349963 0 2 exp 1540 ------- 1 0.0 1.0 0 2
+ 2.349963 0 2 exp 1540 ------- 1 0.0 1.0 0 3
- 2.473163 0 2 exp 1540 ------- 1 0.0 1.0 0 3
r 2.488163 0 2 exp 1540 ------- 1 0.0 1.0 0 2
r 2.611363 0 2 exp 1540 ------- 1 0.0 1.0 0 3
+ 2.679963 0 2 exp 1540 ---A--- 1 0.0 1.0 0 4
- 2.679963 0 2 exp 1540 ---A--- 1 0.0 1.0 0 4
r 2.818163 0 2 exp 1540 ---A--- 1 0.0 1.0 0 4
+ 2.819163 0 2 exp 1540 ------- 1 0.0 1.0 0 6
- 2.819163 0 2 exp 1540 ------- 1 0.0 1.0 0 6
+ 2.819163 0 2 exp 1540 ------- 1 0.0 1.0 0 7
- 2.942363 0 2 exp 1540 ------- 1 0.0 1.0 0 7
+ 2.942363 0 2 exp 1540 ------- 1 0.0 1.0 0 9
r 2.957363 0 2 exp 1540 ------- 1 0.0 1.0 0 6
- 3.065563 0 2 exp 1540 ------- 1 0.0 1.0 0 9
r 3.080563 0 2 exp 1540 ------- 1 0.0 1.0 0 7
+ 3.149163 0 2 exp 1540 ------- 1 0.0 1.0 0 11
- 3.188763 0 2 exp 1540 ------- 1 0.0 1.0 0 11
r 3.203763 0 2 exp 1540 ------- 1 0.0 1.0 0 9
+ 3.288363 0 2 exp 1540 ------- 1 0.0 1.0 0 13
- 3.311963 0 2 exp 1540 ------- 1 0.0 1.0 0 13
r 3.326963 0 2 exp 1540 ------- 1 0.0 1.0 0 11
r 3.450163 0 2 exp 1540 ------- 1 0.0 1.0 0 13
+ 3.534763 0 2 exp 1540 ------- 1 0.0 1.0 0 16
- 3.534763 0 2 exp 1540 ------- 1 0.0 1.0 0 16
+ 3.657963 0 2 exp 1540 ------- 1 0.0 1.0 0 18
- 3.657963 0 2 exp 1540 ------- 1 0.0 1.0 0 18
r 3.672963 0 2 exp 1540 ------- 1 0.0 1.0 0 16
+ 3.781163 0 2 exp 1540 ------- 1 0.0 1.0 0 20
- 3.781163 0 2 exp 1540 ------- 1 0.0 1.0 0 20
r 3.796163 0 2 exp 1540 ------- 1 0.0 1.0 0 18
r 3.919363 0 2 exp 1540 ------- 1 0.0 1.0 0 20
+ 4.003963 0 2 exp 1540 ------- 1 0.0 1.0 0 22
- 4.003963 0 2 exp 1540 ------- 1 0.0 1.0 0 22
+ 4.003963 0 2 exp 1540 ------- 1 0.0 1.0 0 23
- 4.127163 0 2 exp 1540 ------- 1 0.0 1.0 0 23
+ 4.127163 0 2 exp 1540 ------- 1 0.0 1.0 0 25
r 4.142163 0 2 exp 1540 ------- 1 0.0 1.0 0 22
- 4.250363 0 2 exp 1540 ------- 1 0.0 1.0 0 25
+ 4.250363 0 2 exp 1540 ------- 1 0.0 1.0 0 27
r 4.265363 0 2 exp 1540 ------- 1 0.0 1.0 0 23
- 4.373563 0 2 exp 1540 ------- 1 0.0 1.0 0 27
r 4.388563 0 2 exp 1540 ------- 1 0.0 1.0 0 25
+ 4.473163 0 2 exp 1540 ------- 1 0.0 1.0 0 29
- 4.496763 0 2 exp 1540 ------- 1 0.0 1.0 0 29
r 4.511763 0 2 exp 1540 ------- 1 0.0 1.0 0 27
+ 4.596363 0 2 exp 1540 ------- 1 0.0 1.0 0 31
- 4.619963 0 2 exp 1540 ------- 1 0.0 1.0 0 31
r 4.634963 0 2 exp 1540 ------- 1 0.0 1.0 0 29
+ 4.719563 0 2 exp 1540 ------- 1 0.0 1.0 0 33
+ 4.719563 0 2 exp 1540 ------- 1 0.0 1.0 0 34
- 4.743163 0 2 exp 1540 ------- 1 0.0 1.0 0 33
r 4.758163 0 2 exp 1540 ------- 1 0.0 1.0 0 31
+ 4.842763 0 2 exp 1540 ------- 1 0.0 1.0 0 36
- 4.866363 0 2 exp 1540 ------- 1 0.0 1.0 0 34
r 4.881363 0 2 exp 1540 ------- 1 0.0 1.0 0 33
+ 4.965963 0 2 exp 1540 ------- 1 0.0 1.0 0 38
- 4.989563 0 2 exp 1540 ------- 1 0.0 1.0 0 36
r 5.004563 0 2 exp 1540 ------- 1 0.0 1.0 0 34
+ 5.089163 0 2 exp 1540 ------- 1 0.0 1.0 0 40
- 5.112763 0 2 exp 1540 ------- 1 0.0 1.0 0 38
r 5.127763 0 2 exp 1540 ------- 1 0.0 1.0 0 36
+ 5.212363 0 2 exp 1540 ------- 1 0.0 1.0 0 42
- 5.235963 0 2 exp 1540 ------- 1 0.0 1.0 0 40
r 5.250963 0 2 exp 1540 ------- 1 0.0 1.0 0 38
+ 5.335563 0 2 exp 1540 ------- 1 0.0 1.0 0 44
+ 5.335563 0 2 exp 1540 ------- 1 0.0 1.0 0 45
- 5.359163 0 2 exp 1540 ------- 1 0.0 1.0 0 42
r 5.374163 0 2 exp 1540 ------- 1 0.0 1.0 0 40
+ 5.458763 0 2 exp 1540 ------- 1 0.0 1.0 0 47
- 5.482363 0 2 exp 1540 ------- 1 0.0 1.0 0 44
r 5.497363 0 2 exp 1540 ------- 1 0.0 1.0 0 42
+ 5.581963 0 2 exp 1540 ------- 1 0.0 1.0 0 49
- 5.605563 0 2 exp 1540 ------- 1 0.0 1.0 0 45
r 5.620563 0 2 exp 1540 ------- 1 0.0 1.0 0 44
+ 5.705163 0 2 exp 1540 ------- 1 0.0 1.0 0 51
- 5.728763 0 2 exp 1540 ------- 1 0.0 1.0 0 47
r 5.743763 0 2 exp 1540 ------- 1 0.0 1.0 0 45
+ 5.828363 0 2 exp 1540 ------- 1 0.0 1.0 0 53
- 5.851963 0 2 exp 1540 ------- 1 0.0 1.0 0 49
r 5.866963 0 2 exp 1540 ------- 1 0.0 1.0 0 47
+ 5.951563 0 2 exp 1540 ------- 1 0.0 1.0 0 55
- 5.975163 0 2 exp 1540 ------- 1 0.0 1.0 0 51
r 5.990163 0 2 exp 1540 ------- 1 0.0 1.0 0 49
+ 6.074763 0 2 exp 1540 ------- 1 0.0 1.0 0 57
+ 6.074763 0 2 exp 1540 ------- 1 0.0 1.0 0 58
- 6.098363 0 2 exp 1540 ------- 1 0.0 1.0 0 53
r 6.113363 0 2 exp 1540 ------- 1 0.0 1.0 0 51
+ 6.197963 0 2 exp 1540 ------- 1 0.0 1.0 0 60
- 6.221563 0 2 exp 1540 ------- 1 0.0 1.0 0 55
r 6.236563 0 2 exp 1540 ------- 1 0.0 1.0 0 53
+ 6.321163 0 2 exp 1540 ------- 1 0.0 1.0 0 62
- 6.344763 0 2 exp 1540 ------- 1 0.0 1.0 0 57
r 6.359763 0 2 exp 1540 ------- 1 0.0 1.0 0 55
+ 6.444363 0 2 exp 1540 ------- 1 0.0 1.0 0 64
- 6.467963 0 2 exp 1540 ------- 1 0.0 1.0 0 58
r 6.482963 0 2 exp 1540 ------- 1 0.0 1.0 0 57
+ 6.567563 0 2 exp 1540 ------- 1 0.0 1.0 0 66
- 6.591163 0 2 exp 1540 ------- 1 0.0 1.0 0 60
r 6.606163 0 2 exp 1540 ------- 1 0.0 1.0 0 58
+ 6.690763 0 2 exp 1540 ------- 1 0.0 1.0 0 68
- 6.714363 0 2 exp 1540 ------- 1 0.0 1.0 0 62
r 6.729363 0 2 exp 1540 ------- 1 0.0 1.0 0 60
+ 6.813963 0 2 exp 1540 ------- 1 0.0 1.0 0 70
- 6.837563 0 2 exp 1540 ------- 1 0.0 1.0 0 64
r 6.852563 0 2 exp 1540 ------- 1 0.0 1.0 0 62
+ 6.937163 0 2 exp 1540 ------- 1 0.0 1.0 0 72
- 6.960763 0 2 exp 1540 ------- 1 0.0 1.0 0 66
r 6.975763 0 2 exp 1540 ------- 1 0.0 1.0 0 64
+ 7.060363 0 2 exp 1540 ------- 1 0.0 1.0 0 74
+ 7.060363 0 2 exp 1540 ------- 1 0.0 1.0 0 75
- 7.083963 0 2 exp 1540 ------- 1 0.0 1.0 0 68
r 7.098963 0 2 exp 1540 ------- 1 0.0 1.0 0 66
+ 7.183563 0 2 exp 1540 ------- 1 0.0 1.0 0 77
- 7.207163 0 2 exp 1540 ------- 1 0.0 1.0 0 70
r 7.222163 0 2 exp 1540 ------- 1 0.0 1.0 0 68
+ 7.306763 0 2 exp 1540 ------- 1 0.0 1.0 0 79
- 7.330363 0 2 exp 1540 ------- 1 0.0 1.0 0 72
r 7.345363 0 2 exp 1540 ------- 1 0.0 1.0 0 70
+ 7.429963 0 2 exp 1540 ------- 1 0.0 1.0 0 81
- 7.453563 0 2 exp 1540 ------- 1 0.0 1.0 0 74
r 7.468563 0 2 exp 1540 ------- 1 0.0 1.0 0 72
+ 7.553163 0 2 exp 1540 ------- 1 0.0 1.0 0 83
- 7.576763 0 2 exp 1540 ------- 1 0.0 1.0 0 75
r 7.591763 0 2 exp 1540 ------- 1 0.0 1.0 0 74
+ 7.676363 0 2 exp 1540 ------- 1 0.0 1.0 0 85
- 7.699963 0 2 exp 1540 ------- 1 0.0 1.0 0 77
r 7.714963 0 2 exp 1540 ------- 1 0.0 1.0 0 75
+ 7.799563 0 2 exp 1540 ------- 1 0.0 1.0 0 87
- 7.823163 0 2 exp 1540 ------- 1 0.0 1.0 0 79
r 7.838163 0 2 exp 1540 ------- 1 0.0 1.0 0 77
+ 7.922763 0 2 exp 1540 ------- 1 0.0 1.0 0 89
- 7.946363 0 2 exp 1540 ------- 1 0.0 1.0 0 81
r 7.961363 0 2 exp 1540 ------- 1 0.0 1.0 0 79
+ 8.045963 0 2 exp 1540 ------- 1 0.0 1.0 0 91
+ 8.045963 0 2 exp 1540 ------- 1 0.0 1.0 0 92
- 8.069563 0 2 exp 1540 ------- 1 0.0 1.0 0 83
r 8.084563 0 2 exp 1540 ------- 1 0.0 1.0 0 81
+ 8.169163 0 2 exp 1540 ------- 1 0.0 1.0 0 94
- 8.192763 0 2 exp 1540 ------- 1 0.0 1.0 0 85
r 8.207763 0 2 exp 1540 ------- 1 0.0 1.0 0 83
+ 8.292363 0 2 exp 1540 ------- 1 0.0 1.0 0 96
- 8.315963 0 2 exp 1540 ------- 1 0.0 1.0 0 87
r 8.330963 0 2 exp 1540 ------- 1 0.0 1.0 0 85
+ 8.415563 0 2 exp 1540 ------- 1 0.0 1.0 0 98
- 8.439163 0 2 exp 1540 ------- 1 0.0 1.0 0 89
r 8.454163 0 2 exp 1540 ------- 1 0.0 1.0 0 87
+ 8.538763 0 2 exp 1540 ------- 1 0.0 1.0 0 100
- 8.562363 0 2 exp 1540 ------- 1 0.0 1.0 0 91
r 8.577363 0 2 exp 1540 ------- 1 0.0 1.0 0 89
+ 8.661963 0 2 exp 1540 ------- 1 0.0 1.0 0 102
- 8.685563 0 2 exp 1540 ------- 1 0.0 1.0 0 92
r 8.700563 0 2 exp 1540 ------- 1 0.0 1.0 0 91
+ 8.785163 0 2 exp 1540 ------- 1 0.0 1.0 0 104
- 8.808763 0 2 exp 1540 ------- 1 0.0 1.0 0 94
r 8.823763 0 2 exp 1540 ------- 1 0.0 1.0 0 92
+ 8.908363 0 2 exp 1540 ------- 1 0.0 1.0 0 106
- 8.931963 0 2 exp 1540 ------- 1 0.0 1.0 0 96
r 8.946963 0 2 exp 1540 ------- 1 0.0 1.0 0 94
+ 9.031563 0 2 exp 1540 ------- 1 0.0 1.0 0 108
- 9.055163 0 2 exp 1540 ------- 1 0.0 1.0 0 98
r 9.070163 0 2 exp 1540 ------- 1 0.0 1.0 0 96
+ 9.154763 0 2 exp 1540 ------- 1 0.0 1.0 0 110
- 9.178363 0 2 exp 1540 ------- 1 0.0 1.0 0 100
r 9.193363 0 2 exp 1540 ------- 1 0.0 1.0 0 98
+ 9.277963 0 2 exp 1540 ------- 1 0.0 1.0 0 112
+ 9.277963 0 2 exp 1540 ------- 1 0.0 1.0 0 113
- 9.301563 0 2 exp 1540 ------- 1 0.0 1.0 0 102
r 9.316563 0 2 exp 1540 ------- 1 0.0 1.0 0 100
+ 9.401163 0 2 exp 1540 ------- 1 0.0 1.0 0 115
- 9.424763 0 2 exp 1540 ------- 1 0.0 1.0 0 104
r 9.439763 0 2 exp 1540 ------- 1 0.0 1.0 0 102
+ 9.524363 0 2 exp 1540 ------- 1 0.0 1.0 0 117
- 9.547963 0 2 exp 1540 ------- 1 0.0 1.0 0 106
r 9.562963 0 2 exp 1540 ------- 1 0.0 1.0 0 104
+ 9.647563 0 2 exp 1540 ------- 1 0.0 1.0 0 119
- 9.671163 0 2 exp 1540 ------- 1 0.0 1.0 0 108
r 9.686163 0 2 exp 1540 ------- 1 0.0 1.0 0 106
+ 9.770763 0 2 exp 1540 ------- 1 0.0 1.0 0 121
- 9.794363 0 2 exp 1540 ------- 1 0.0 1.0 0 110
r 9.809363 0 2 exp 1540 ------- 1 0.0 1.0 0 108
+ 9.893963 0 2 exp 1540 ------- 1 0.0 1.0 0 123
- 9.917563 0 2 exp 1540 ------- 1 0.0 1.0 0 112
r 9.932563 0 2 exp 1540 ------- 1 0.0 1.0 0 110
+ 10.017163 0 2 exp 1540 ------- 1 0.0 1.0 0 125
- 10.040763 0 2 exp 1540 ------- 1 0.0 1.0 0 113
r 10.055763 0 2 exp 1540 ------- 1 0.0 1.0 0 112
+ 10.140363 0 2 exp 1540 ------- 1 0.0 1.0 0 127
- 10.163963 0 2 exp 1540 ------- 1 0.0 1.0 0 115
r 10.178963 0 2 exp 1540 ------- 1 0.0 1.0 0 113
+ 10.263563 0 2 exp 1540 ------- 1 0.0 1.0 0 129
- 10.287163 0 2 exp 1540 ------- 1 0.0 1.0 0 117
r 10.302163 0 2 exp 1540 ------- 1 0.0 1.0 0 115
+ 10.386763 0 2 exp 1540 ------- 1 0.0 1.0 0 131
- 10.410363 0 2 exp 1540 ------- 1 0.0 1.0 0 119
r 10.425363 0 2 exp 1540 ------- 1 0.0 1.0 0 117
+ 10.509963 0 2 exp 1540 ------- 1 0.0 1.0 0 133
+ 10.509963 0 2 exp 1540 ------- 1 0.0 1.0 0 134
- 10.533563 0 2 exp 1540 ------- 1 0.0 1.0 0 121
r 10.548563 0 2 exp 1540 ------- 1 0.0 1.0 0 119
+ 10.633163 0 2 exp 1540 ------- 1 0.0 1.0 0 136
- 10.656763 0 2 exp 1540 ------- 1 0.0 1.0 0 123
r 10.671763 0 2 exp 1540 ------- 1 0.0 1.0 0 121
+ 10.756363 0 2 exp 1540 ------- 1 0.0 1.0 0 138
- 10.779963 0 2 exp 1540 ------- 1 0.0 1.0 0 125
r 10.794963 0 2 exp 1540 ------- 1 0.0 1.0 0 123
+ 10.879563 0 2 exp 1540 ------- 1 0.0 1.0 0 140
- 10.903163 0 2 exp 1540 ------- 1 0.0 1.0 0 127
r 10.918163 0 2 exp 1540 ------- 1 0.0 1.0 0 125
+ 11.002763 0 2 exp 1540 ------- 1 0.0 1.0 0 142
- 11.026363 0 2 exp 1540 ------- 1 0.0 1.0 0 129
r 11.041363 0 2 exp 1540 ------- 1 0.0 1.0 0 127
+ 11.125963 0 2 exp 1540 ------- 1 0.0 1.0 0 144
- 11.149563 0 2 exp 1540 ------- 1 0.0 1.0 0 131
r 11.164563 0 2 exp 1540 ------- 1 0.0 1.0 0 129
+ 11.249163 0 2 exp 1540 ------- 1 0.0 1.0 0 146
- 11.272763 0 2 exp 1540 ------- 1 0.0 1.0 0 133
r 11.287763 0 2 exp 1540 ------- 1 0.0 1.0 0 131
+ 11.372363 0 2 exp 1540 ------- 1 0.0 1.0 0 148
- 11.395963 0 2 exp 1540 ------- 1 0.0 1.0 0 134
r 11.410963 0 2 exp 1540 ------- 1 0.0 1.0 0 133
+ 11.495563 0 2 exp 1540 ------- 1 0.0 1.0 0 150
- 11.519163 0 2 exp 1540 ------- 1 0.0 1.0 0 136
r 11.534163 0 2 exp 1540 ------- 1 0.0 1.0 0 134
+ 11.618763 0 2 exp 1540 ------- 1 0.0 1.0 0 152
- 11.642363 0 2 exp 1540 ------- 1 0.0 1.0 0 138
r 11.657363 0 2 exp 1540 ------- 1 0.0 1.0 0 136
+ 11.741963 0 2 exp 1540 ------- 1 0.0 1.0 0 154
- 11.765563 0 2 exp 1540 ------- 1 0.0 1.0 0 140
r 11.780563 0 2 exp 1540 ------- 1 0.0 1.0 0 138
+ 11.865163 0 2 exp 1540 ------- 1 0.0 1.0 0 156
- 11.888763 0 2 exp 1540 ------- 1 0.0 1.0 0 142
r 11.903763 0 2 exp 1540 ------- 1 0.0 1.0 0 140
+ 11.988363 0 2 exp 1540 ------- 1 0.0 1.0 0 158
+ 11.988363 0 2 exp 1540 ------- 1 0.0 1.0 0 159
- 12.011963 0 2 exp 1540 ------- 1 0.0 1.0 0 144
r 12.026963 0 2 exp 1540 ------- 1 0.0 1.0 0 142
+ 12.111563 0 2 exp 1540 ------- 1 0.0 1.0 0 161
- 12.135163 0 2 exp 1540 ------- 1 0.0 1.0 0 146
r 12.150163 0 2 exp 1540 ------- 1 0.0 1.0 0 144
+ 12.234763 0 2 exp 1540 ------- 1 0.0 1.0 0 163
- 12.258363 0 2 exp 1540 ------- 1 0.0 1.0 0 148
r 12.273363 0 2 exp 1540 ------- 1 0.0 1.0 0 146
+ 12.357963 0 2 exp 1540 ------- 1 0.0 1.0 0 165
- 12.381563 0 2 exp 1540 ------- 1 0.0 1.0 0 150
r 12.396563 0 2 exp 1540 ------- 1 0.0 1.0 0 148
+ 12.481163 0 2 exp 1540 ------- 1 0.0 1.0 0 167
- 12.504763 0 2 exp 1540 ------- 1 0.0 1.0 0 152
r 12.519763 0 2 exp 1540 ------- 1 0.0 1.0 0 150
+ 12.604363 0 2 exp 1540 ------- 1 0.0 1.0 0 169
- 12.627963 0 2 exp 1540 ------- 1 0.0 1.0 0 154
r 12.642963 0 2 exp 1540 ------- 1 0.0 1.0 0 152
+ 12.727563 0 2 exp 1540 ------- 1 0.0 1.0 0 171
- 12.751163 0 2 exp 1540 ------- 1 0.0 1.0 0 156
r 12.766163 0 2 exp 1540 ------- 1 0.0 1.0 0 154
+ 12.850763 0 2 exp 1540 ------- 1 0.0 1.0 0 173
- 12.874363 0 2 exp 1540 ------- 1 0.0 1.0 0 158
r 12.889363 0 2 exp 1540 ------- 1 0.0 1.0 0 156
+ 12.973963 0 2 exp 1540 ------- 1 0.0 1.0 0 175
- 12.997563 0 2 exp 1540 ------- 1 0.0 1.0 0 159
r 13.012563 0 2 exp 1540 ------- 1 0.0 1.0 0 158
+ 13.097163 0 2 exp 1540 ------- 1 0.0 1.0 0 177
- 13.120763 0 2 exp 1540 ------- 1 0.0 1.0 0 161
r 13.135763 0 2 exp 1540 ------- 1 0.0 1.0 0 159
+ 13.220363 0 2 exp 1540 ------- 1 0.0 1.0 0 179
- 13.243963 0 2 exp 1540 ------- 1 0.0 1.0 0 163
r 13.258963 0 2 exp 1540 ------- 1 0.0 1.0 0 161
+ 13.343563 0 2 exp 1540 ------- 1 0.0 1.0 0 181
- 13.367163 0 2 exp 1540 ------- 1 0.0 1.0 0 165
r 13.382163 0 2 exp 1540 ------- 1 0.0 1.0 0 163
+ 13.466763 0 2 exp 1540 ------- 1 0.0 1.0 0 183
+ 13.466763 0 2 exp 1540 ------- 1 0.0 1.0 0 184
d 13.466763 0 2 exp 1540 ------- 1 0.0 1.0 0 184
- 13.490363 0 2 exp 1540 ------- 1 0.0 1.0 0 167
r 13.505363 0 2 exp 1540 ------- 1 0.0 1.0 0 165
+ 13.589963 0 2 exp 1540 ------- 1 0.0 1.0 0 186
- 13.613563 0 2 exp 1540 ------- 1 0.0 1.0 0 169
r 13.628563 0 2 exp 1540 ------- 1 0.0 1.0 0 167
+ 13.713163 0 2 exp 1540 ------- 1 0.0 1.0 0 188
- 13.736763 0 2 exp 1540 ------- 1 0.0 1.0 0 171
r 13.751763 0 2 exp 1540 ------- 1 0.0 1.0 0 169
+ 13.836363 0 2 exp 1540 ------- 1 0.0 1.0 0 190
- 13.859963 0 2 exp 1540 ------- 1 0.0 1.0 0 173
r 13.874963 0 2 exp 1540 ------- 1 0.0 1.0 0 171
+ 13.959563 0 2 exp 1540 ------- 1 0.0 1.0 0 192
- 13.983163 0 2 exp 1540 ------- 1 0.0 1.0 0 175
r 13.998163 0 2 exp 1540 ------- 1 0.0 1.0 0 173
+ 14.082763 0 2 exp 1540 ------- 1 0.0 1.0 0 194
- 14.106363 0 2 exp 1540 ------- 1 0.0 1.0 0 177
r 14.121363 0 2 exp 1540 ------- 1 0.0 1.0 0 175
+ 14.205963 0 2 exp 1540 ------- 1 0.0 1.0 0 196
- 14.229563 0 2 exp 1540 ------- 1 0.0 1.0 0 179
r 14.244563 0 2 exp 1540 ------- 1 0.0 1.0 0 177
+ 14.329163 0 2 exp 1540 ------- 1 0.0 1.0 0 198
- 14.352763 0 2 exp 1540 ------- 1 0.0 1.0 0 181
r 14.367763 0 2 exp 1540 ------- 1 0.0 1.0 0 179
+ 14.452363 0 2 exp 1540 ------- 1 0.0 1.0 0 200
- 14.475963 0 2 exp 1540 ------- 1 0.0 1.0 0 183
r 14.490963 0 2 exp 1540 ------- 1 0.0 1.0 0 181
+ 14.575563 0 2 exp 1540 ------- 1 0.0 1.0 0 202
- 14.599163 0 2 exp 1540 ------- 1 0.0 1.0 0 186
r 14.614163 0 2 exp 1540 ------- 1 0.0 1.0 0 183
+ 14.698763 0 2 exp 1540 ------- 1 0.0 1.0 0 204
- 14.722363 0 2 exp 1540 ------- 1 0.0 1.0 0 188
r 14.737363 0 2 exp 1540 ------- 1 0.0 1.0 0 186
+ 14.821963 0 2 exp 1540 ------- 1 0.0 1.0 0 206
- 14.845563 0 2 exp 1540 ------- 1 0.0 1.0 0 190
r 14.860563 0 2 exp 1540 ------- 1 0.0 1.0 0 188
+ 14.945163 0 2 exp 1540 ------- 1 0.0 1.0 0 208
- 14.968763 0 2 exp 1540 ------- 1 0.0 1.0 0 192
r 14.983763 0 2 exp 1540 ------- 1 0.0 1.0 0 190
+ 15.068363 0 2 exp 1540 ------- 1 0.0 1.0 0 210
- 15.091963 0 2 exp 1540 ------- 1 0.0 1.0 0 194
r 15.106963 0 2 exp 1540 ------- 1 0.0 1.0 0 192
+ 15.191563 0 2 exp 1540 ------- 1 0.0 1.0 0 212
- 15.215163 0 2 exp 1540 ------- 1 0.0 1.0 0 196
r 15.230163 0 2 exp 1540 ------- 1 0.0 1.0 0 194
+ 15.314763 0 2 exp 1540 ---A--- 1 0.0 1.0 0 214
- 15.338363 0 2 exp 1540 ------- 1 0.0 1.0 0 198
r 15.353363 0 2 exp 1540 ------- 1 0.0 1.0 0 196
- 15.461563 0 2 exp 1540 ------- 1 0.0 1.0 0 200
r 15.476563 0 2 exp 1540 ------- 1 0.0 1.0 0 198
- 15.584763 0 2 exp 1540 ------- 1 0.0 1.0 0 202
r 15.599763 0 2 exp 1540 ------- 1 0.0 1.0 0 200
- 15.707963 0 2 exp 1540 ------- 1 0.0 1.0 0 204
r 15.722963 0 2 exp 1540 ------- 1 0.0 1.0 0 202
- 15.831163 0 2 exp 1540 ------- 1 0.0 1.0 0 206
r 15.846163 0 2 exp 1540 ------- 1 0.0 1.0 0 204
- 15.954363 0 2 exp 1540 ------- 1 0.0 1.0 0 208
r 15.969363 0 2 exp 1540 ------- 1 0.0 1.0 0 206
- 16.077563 0 2 exp 1540 ------- 1 0.0 1.0 0 210
r 16.092563 0 2 exp 1540 ------- 1 0.0 1.0 0 208
- 16.200763 0 2 exp 1540 ------- 1 0.0 1.0 0 212
r 16.215763 0 2 exp 1540 ------- 1 0.0 1.0 0 210
- 16.323963 0 2 exp 1540 ---A--- 1 0.0 1.0 0 214
r 16.338963 0 2 exp 1540 ------- 1 0.0 1.0 0 212
r 16.462163 0 2 exp 1540 ---A--- 1 0.0 1.0 0 214
+ 16.793163 0 2 exp 1540 ------- 1 0.0 1.0 0 227
- 16.793163 0 2 exp 1540 ------- 1 0.0 1.0 0 227
+ 16.793163 0 2 exp 1540 ------- 1 0.0 1.0 0 228
- 16.916363 0 2 exp 1540 ------- 1 0.0 1.0 0 228
r 16.931363 0 2 exp 1540 ------- 1 0.0 1.0 0 227
r 17.054563 0 2 exp 1540 ------- 1 0.0 1.0 0 228
+ 17.262363 0 2 exp 1540 ------- 1 0.0 1.0 0 230
- 17.262363 0 2 exp 1540 ------- 1 0.0 1.0 0 230
+ 17.262363 0 2 exp 1540 ------- 1 0.0 1.0 0 231
- 17.385563 0 2 exp 1540 ------- 1 0.0 1.0 0 231
+ 17.385563 0 2 exp 1540 ------- 1 0.0 1.0 0 233
+ 17.385563 0 2 exp 1540 ------- 1 0.0 1.0 0 234
r 17.400563 0 2 exp 1540 ------- 1 0.0 1.0 0 230
- 17.508763 0 2 exp 1540 ------- 1 0.0 1.0 0 233
r 17.523763 0 2 exp 1540 ------- 1 0.0 1.0 0 231
- 17.631963 0 2 exp 1540 ------- 1 0.0 1.0 0 234
r 17.646963 0 2 exp 1540 ------- 1 0.0 1.0 0 233
+ 17.731563 0 2 exp 1540 ------- 1 0.0 1.0 0 236
+ 17.731563 0 2 exp 1540 ------- 1 0.0 1.0 0 237
- 17.755163 0 2 exp 1540 ------- 1 0.0 1.0 0 236
r 17.770163 0 2 exp 1540 ------- 1 0.0 1.0 0 234
+ 17.854763 0 2 exp 1540 ------- 1 0.0 1.0 0 239
+ 17.854763 0 2 exp 1540 ------- 1 0.0 1.0 0 240
- 17.878363 0 2 exp 1540 ------- 1 0.0 1.0 0 237
r 17.893363 0 2 exp 1540 ------- 1 0.0 1.0 0 236
+ 17.977963 0 2 exp 1540 ------- 1 0.0 1.0 0 242
- 18.001563 0 2 exp 1540 ------- 1 0.0 1.0 0 239
r 18.016563 0 2 exp 1540 ------- 1 0.0 1.0 0 237
+ 18.101163 0 2 exp 1540 ------- 1 0.0 1.0 0 244
- 18.124763 0 2 exp 1540 ------- 1 0.0 1.0 0 240
r 18.139763 0 2 exp 1540 ------- 1 0.0 1.0 0 239
+ 18.224363 0 2 exp 1540 ------- 1 0.0 1.0 0 246
- 18.247963 0 2 exp 1540 ------- 1 0.0 1.0 0 242
r 18.262963 0 2 exp 1540 ------- 1 0.0 1.0 0 240
+ 18.347563 0 2 exp 1540 ------- 1 0.0 1.0 0 248
- 18.371163 0 2 exp 1540 ------- 1 0.0 1.0 0 244
r 18.386163 0 2 exp 1540 ------- 1 0.0 1.0 0 242
+ 18.470763 0 2 exp 1540 ------- 1 0.0 1.0 0 250
- 18.494363 0 2 exp 1540 ------- 1 0.0 1.0 0 246
r 18.509363 0 2 exp 1540 ------- 1 0.0 1.0 0 244
+ 18.593963 0 2 exp 1540 ------- 1 0.0 1.0 0 252
- 18.617563 0 2 exp 1540 ------- 1 0.0 1.0 0 248
r 18.632563 0 2 exp 1540 ------- 1 0.0 1.0 0 246
+ 18.717163 0 2 exp 1540 ------- 1 0.0 1.0 0 254
+ 18.717163 0 2 exp 1540 ------- 1 0.0 1.0 0 255
- 18.740763 0 2 exp 1540 ------- 1 0.0 1.0 0 250
r 18.755763 0 2 exp 1540 ------- 1 0.0 1.0 0 248
+ 18.840363 0 2 exp 1540 ------- 1 0.0 1.0 0 257
- 18.863963 0 2 exp 1540 ------- 1 0.0 1.0 0 252
r 18.878963 0 2 exp 1540 ------- 1 0.0 1.0 0 250
+ 18.963563 0 2 exp 1540 ------- 1 0.0 1.0 0 259
- 18.987163 0 2 exp 1540 ------- 1 0.0 1.0 0 254
r 19.002163 0 2 exp 1540 ------- 1 0.0 1.0 0 252
+ 19.086763 0 2 exp 1540 ------- 1 0.0 1.0 0 261
- 19.110363 0 2 exp 1540 ------- 1 0.0 1.0 0 255
r 19.125363 0 2 exp 1540 ------- 1 0.0 1.0 0 254
+ 19.209963 0 2 exp 1540 ------- 1 0.0 1.0 0 263
- 19.233563 0 2 exp 1540 ------- 1 0.0 1.0 0 257
r 19.248563 0 2 exp 1540 ------- 1 0.0 1.0 0 255
+ 19.333163 0 2 exp 1540 ------- 1 0.0 1.0 0 265
- 19.356763 0 2 exp 1540 ------- 1 0.0 1.0 0 259
r 19.371763 0 2 exp 1540 ------- 1 0.0 1.0 0 257
+ 19.456363 0 2 exp 1540 ------- 1 0.0 1.0 0 267
- 19.479963 0 2 exp 1540 ------- 1 0.0 1.0 0 261
r 19.494963 0 2 exp 1540 ------- 1 0.0 1.0 0 259
+ 19.579563 0 2 exp 1540 ------- 1 0.0 1.0 0 269
+ 19.579563 0 2 exp 1540 ------- 1 0.0 1.0 0 270
- 19.603163 0 2 exp 1540 ------- 1 0.0 1.0 0 263
r 19.618163 0 2 exp 1540 ------- 1 0.0 1.0 0 261
+ 19.702763 0 2 exp 1540 ------- 1 0.0 1.0 0 272
- 19.726363 0 2 exp 1540 ------- 1 0.0 1.0 0 265
r 19.741363 0 2 exp 1540 ------- 1 0.0 1.0 0 263
+ 19.825963 0 2 exp 1540 ------- 1 0.0 1.0 0 274
- 19.849563 0 2 exp 1540 ------- 1 0.0 1.0 0 267
r 19.864563 0 2 exp 1540 ------- 1 0.0 1.0 0 265
+ 19.949163 0 2 exp 1540 ------- 1 0.0 1.0 0 276
- 19.972763 0 2 exp 1540 ------- 1 0.0 1.0 0 269
r 19.987763 0 2 exp 1540 ------- 1 0.0 1.0 0 267
