V -t * -v 1.0a5 -a 0
A -t * -n 1 -p 0 -o 0x7fffffff -c 30 -a 1
A -t * -h 1 -m 1073741823 -s 0
n -t * -a 17 -s 17 -S UP -v circle -c black -i black
n -t * -a 0 -s 0 -S UP -v circle -c black -i black
n -t * -a 18 -s 18 -S UP -v circle -c black -i black
n -t * -a 1 -s 1 -S UP -v circle -c black -i black
n -t * -a 20 -s 20 -S UP -v circle -c black -i black
n -t * -a 19 -s 19 -S UP -v circle -c black -i black
n -t * -a 2 -s 2 -S UP -v circle -c black -i black
n -t * -a 21 -s 21 -S UP -v circle -c black -i black
n -t * -a 3 -s 3 -S UP -v circle -c black -i black
n -t * -a 4 -s 4 -S UP -v circle -c black -i black
n -t * -a 5 -s 5 -S UP -v circle -c black -i black
n -t * -a 6 -s 6 -S UP -v circle -c black -i black
n -t * -a 7 -s 7 -S UP -v circle -c black -i black
n -t * -a 8 -s 8 -S UP -v circle -c black -i black
n -t * -a 9 -s 9 -S UP -v circle -c black -i black
n -t * -a 10 -s 10 -S UP -v circle -c black -i black
n -t * -a 11 -s 11 -S UP -v circle -c black -i black
n -t * -a 12 -s 12 -S UP -v circle -c black -i black
n -t * -a 13 -s 13 -S UP -v circle -c black -i black
n -t * -a 14 -s 14 -S UP -v circle -c black -i black
n -t * -a 15 -s 15 -S UP -v circle -c black -i black
n -t * -a 16 -s 16 -S UP -v circle -c black -i black
l -t * -s 0 -d 1 -S UP -r 100000 -D 0.014999999999999999 -c black
l -t * -s 2 -d 0 -S UP -r 100000 -D 0.014999999999999999 -c black
l -t * -s 3 -d 1 -S UP -r 100000 -D 0.014999999999999999 -c black
l -t * -s 4 -d 0 -S UP -r 100000 -D 0.014999999999999999 -c black
l -t * -s 5 -d 1 -S UP -r 100000 -D 0.014999999999999999 -c black
l -t * -s 6 -d 0 -S UP -r 100000 -D 0.014999999999999999 -c black
l -t * -s 7 -d 1 -S UP -r 100000 -D 0.014999999999999999 -c black
l -t * -s 8 -d 0 -S UP -r 100000 -D 0.014999999999999999 -c black
l -t * -s 9 -d 1 -S UP -r 100000 -D 0.014999999999999999 -c black
l -t * -s 10 -d 0 -S UP -r 100000 -D 0.014999999999999999 -c black
l -t * -s 11 -d 1 -S UP -r 100000 -D 0.014999999999999999 -c black
l -t * -s 12 -d 0 -S UP -r 100000 -D 0.014999999999999999 -c black
l -t * -s 13 -d 1 -S UP -r 100000 -D 0.014999999999999999 -c black
l -t * -s 14 -d 0 -S UP -r 100000 -D 0.014999999999999999 -c black
l -t * -s 15 -d 1 -S UP -r 100000 -D 0.014999999999999999 -c black
l -t * -s 16 -d 0 -S UP -r 100000 -D 0.014999999999999999 -c black
l -t * -s 17 -d 1 -S UP -r 100000 -D 0.014999999999999999 -c black
l -t * -s 18 -d 0 -S UP -r 100000 -D 0.014999999999999999 -c black
l -t * -s 19 -d 1 -S UP -r 100000 -D 0.014999999999999999 -c black
l -t * -s 20 -d 0 -S UP -r 100000 -D 0.014999999999999999 -c black
l -t * -s 21 -d 1 -S UP -r 100000 -D 0.014999999999999999 -c black
+ -t 0.552962839674674 -s 2 -d 0 -p exp -e 40 -c 0 -i 0 -a 0 -x {2.0 3.0 0 ------- null}
- -t 0.552962839674674 -s 2 -d 0 -p exp -e 40 -c 0 -i 0 -a 0 -x {2.0 3.0 0 ------- null}
h -t 0.552962839674674 -s 2 -d 0 -p exp -e 40 -c 0 -i 0 -a 0 -x {2.0 3.0 -1 ------- null}
r -t 0.571162839674674 -s 2 -d 0 -p exp -e 40 -c 0 -i 0 -a 0 -x {2.0 3.0 0 ------- null}
+ -t 0.571162839674674 -s 0 -d 1 -p exp -e 40 -c 0 -i 0 -a 0 -x {2.0 3.0 0 ------- null}
- -t 0.571162839674674 -s 0 -d 1 -p exp -e 40 -c 0 -i 0 -a 0 -x {2.0 3.0 0 ------- null}
h -t 0.571162839674674 -s 0 -d 1 -p exp -e 40 -c 0 -i 0 -a 0 -x {2.0 3.0 -1 ------- null}
r -t 0.589362839674674 -s 0 -d 1 -p exp -e 40 -c 0 -i 0 -a 0 -x {2.0 3.0 0 ------- null}
+ -t 0.589362839674674 -s 1 -d 3 -p exp -e 40 -c 0 -i 0 -a 0 -x {2.0 3.0 0 ------- null}
- -t 0.589362839674674 -s 1 -d 3 -p exp -e 40 -c 0 -i 0 -a 0 -x {2.0 3.0 0 ------- null}
h -t 0.589362839674674 -s 1 -d 3 -p exp -e 40 -c 0 -i 0 -a 0 -x {2.0 3.0 -1 ------- null}
r -t 0.607562839674674 -s 1 -d 3 -p exp -e 40 -c 0 -i 0 -a 0 -x {2.0 3.0 0 ------- null}
+ -t 0.607562839674674 -s 3 -d 1 -p ack -e 40 -c 0 -i 1 -a 0 -x {3.0 2.0 0 ------- null}
- -t 0.607562839674674 -s 3 -d 1 -p ack -e 40 -c 0 -i 1 -a 0 -x {3.0 2.0 0 ------- null}
h -t 0.607562839674674 -s 3 -d 1 -p ack -e 40 -c 0 -i 1 -a 0 -x {3.0 2.0 -1 ------- null}
r -t 0.625762839674674 -s 3 -d 1 -p ack -e 40 -c 0 -i 1 -a 0 -x {3.0 2.0 0 ------- null}
+ -t 0.625762839674674 -s 1 -d 0 -p ack -e 40 -c 0 -i 1 -a 0 -x {3.0 2.0 0 ------- null}
- -t 0.625762839674674 -s 1 -d 0 -p ack -e 40 -c 0 -i 1 -a 0 -x {3.0 2.0 0 ------- null}
h -t 0.625762839674674 -s 1 -d 0 -p ack -e 40 -c 0 -i 1 -a 0 -x {3.0 2.0 -1 ------- null}
r -t 0.643962839674674 -s 1 -d 0 -p ack -e 40 -c 0 -i 1 -a 0 -x {3.0 2.0 0 ------- null}
+ -t 0.643962839674674 -s 0 -d 2 -p ack -e 40 -c 0 -i 1 -a 0 -x {3.0 2.0 0 ------- null}
- -t 0.643962839674674 -s 0 -d 2 -p ack -e 40 -c 0 -i 1 -a 0 -x {3.0 2.0 0 ------- null}
h -t 0.643962839674674 -s 0 -d 2 -p ack -e 40 -c 0 -i 1 -a 0 -x {3.0 2.0 -1 ------- null}
r -t 0.662162839674674 -s 0 -d 2 -p ack -e 40 -c 0 -i 1 -a 0 -x {3.0 2.0 0 ------- null}
+ -t 0.662162839674674 -s 2 -d 0 -p exp -e 1540 -c 0 -i 2 -a 0 -x {2.0 3.0 0 ------- null}
- -t 0.662162839674674 -s 2 -d 0 -p exp -e 1540 -c 0 -i 2 -a 0 -x {2.0 3.0 0 ------- null}
h -t 0.662162839674674 -s 2 -d 0 -p exp -e 1540 -c 0 -i 2 -a 0 -x {2.0 3.0 -1 ------- null}
+ -t 0.662162839674674 -s 2 -d 0 -p exp -e 1540 -c 0 -i 3 -a 0 -x {2.0 3.0 0 ------- null}
- -t 0.785362839674674 -s 2 -d 0 -p exp -e 1540 -c 0 -i 3 -a 0 -x {2.0 3.0 0 ------- null}
h -t 0.785362839674674 -s 2 -d 0 -p exp -e 1540 -c 0 -i 3 -a 0 -x {2.0 3.0 -1 ------- null}
r -t 0.800362839674674 -s 2 -d 0 -p exp -e 1540 -c 0 -i 2 -a 0 -x {2.0 3.0 0 ------- null}
+ -t 0.800362839674674 -s 0 -d 1 -p exp -e 1540 -c 0 -i 2 -a 0 -x {2.0 3.0 0 ------- null}
- -t 0.800362839674674 -s 0 -d 1 -p exp -e 1540 -c 0 -i 2 -a 0 -x {2.0 3.0 0 ------- null}
h -t 0.800362839674674 -s 0 -d 1 -p exp -e 1540 -c 0 -i 2 -a 0 -x {2.0 3.0 -1 ------- null}
r -t 0.923562839674674 -s 2 -d 0 -p exp -e 1540 -c 0 -i 3 -a 0 -x {2.0 3.0 0 ------- null}
+ -t 0.923562839674674 -s 0 -d 1 -p exp -e 1540 -c 0 -i 3 -a 0 -x {2.0 3.0 0 ------- null}
- -t 0.923562839674674 -s 0 -d 1 -p exp -e 1540 -c 0 -i 3 -a 0 -x {2.0 3.0 0 ------- null}
h -t 0.923562839674674 -s 0 -d 1 -p exp -e 1540 -c 0 -i 3 -a 0 -x {2.0 3.0 -1 ------- null}
r -t 0.938562839674674 -s 0 -d 1 -p exp -e 1540 -c 0 -i 2 -a 0 -x {2.0 3.0 0 ------- null}
+ -t 0.938562839674674 -s 1 -d 3 -p exp -e 1540 -c 0 -i 2 -a 0 -x {2.0 3.0 0 ------- null}
- -t 0.938562839674674 -s 1 -d 3 -p exp -e 1540 -c 0 -i 2 -a 0 -x {2.0 3.0 0 ------- null}
h -t 0.938562839674674 -s 1 -d 3 -p exp -e 1540 -c 0 -i 2 -a 0 -x {2.0 3.0 -1 ------- null}
+ -t 0.992162839674674 -s 2 -d 0 -p exp -e 1540 -c 0 -i 4 -a 0 -x {2.0 3.0 0 ---A--- null}
- -t 0.992162839674674 -s 2 -d 0 -p exp -e 1540 -c 0 -i 4 -a 0 -x {2.0 3.0 0 ---A--- null}
h -t 0.992162839674674 -s 2 -d 0 -p exp -e 1540 -c 0 -i 4 -a 0 -x {2.0 3.0 -1 ---A--- null}
r -t 1.06176283967467 -s 0 -d 1 -p exp -e 1540 -c 0 -i 3 -a 0 -x {2.0 3.0 0 ------- null}
+ -t 1.06176283967467 -s 1 -d 3 -p exp -e 1540 -c 0 -i 3 -a 0 -x {2.0 3.0 0 ------- null}
- -t 1.06176283967467 -s 1 -d 3 -p exp -e 1540 -c 0 -i 3 -a 0 -x {2.0 3.0 0 ------- null}
h -t 1.06176283967467 -s 1 -d 3 -p exp -e 1540 -c 0 -i 3 -a 0 -x {2.0 3.0 -1 ------- null}
r -t 1.07676283967467 -s 1 -d 3 -p exp -e 1540 -c 0 -i 2 -a 0 -x {2.0 3.0 0 ------- null}
+ -t 1.07676283967467 -s 3 -d 1 -p ack -e 40 -c 0 -i 5 -a 0 -x {3.0 2.0 1 ------- null}
- -t 1.07676283967467 -s 3 -d 1 -p ack -e 40 -c 0 -i 5 -a 0 -x {3.0 2.0 1 ------- null}
h -t 1.07676283967467 -s 3 -d 1 -p ack -e 40 -c 0 -i 5 -a 0 -x {3.0 2.0 -1 ------- null}
r -t 1.09496283967467 -s 3 -d 1 -p ack -e 40 -c 0 -i 5 -a 0 -x {3.0 2.0 1 ------- null}
+ -t 1.09496283967467 -s 1 -d 0 -p ack -e 40 -c 0 -i 5 -a 0 -x {3.0 2.0 1 ------- null}
- -t 1.09496283967467 -s 1 -d 0 -p ack -e 40 -c 0 -i 5 -a 0 -x {3.0 2.0 1 ------- null}
h -t 1.09496283967467 -s 1 -d 0 -p ack -e 40 -c 0 -i 5 -a 0 -x {3.0 2.0 -1 ------- null}
r -t 1.11316283967467 -s 1 -d 0 -p ack -e 40 -c 0 -i 5 -a 0 -x {3.0 2.0 1 ------- null}
+ -t 1.11316283967467 -s 0 -d 2 -p ack -e 40 -c 0 -i 5 -a 0 -x {3.0 2.0 1 ------- null}
- -t 1.11316283967467 -s 0 -d 2 -p ack -e 40 -c 0 -i 5 -a 0 -x {3.0 2.0 1 ------- null}
h -t 1.11316283967467 -s 0 -d 2 -p ack -e 40 -c 0 -i 5 -a 0 -x {3.0 2.0 -1 ------- null}
r -t 1.13036283967467 -s 2 -d 0 -p exp -e 1540 -c 0 -i 4 -a 0 -x {2.0 3.0 0 ---A--- null}
+ -t 1.13036283967467 -s 0 -d 1 -p exp -e 1540 -c 0 -i 4 -a 0 -x {2.0 3.0 0 ---A--- null}
- -t 1.13036283967467 -s 0 -d 1 -p exp -e 1540 -c 0 -i 4 -a 0 -x {2.0 3.0 0 ---A--- null}
h -t 1.13036283967467 -s 0 -d 1 -p exp -e 1540 -c 0 -i 4 -a 0 -x {2.0 3.0 -1 ---A--- null}
r -t 1.13136283967467 -s 0 -d 2 -p ack -e 40 -c 0 -i 5 -a 0 -x {3.0 2.0 1 ------- null}
+ -t 1.13136283967467 -s 2 -d 0 -p exp -e 1540 -c 0 -i 6 -a 0 -x {2.0 3.0 0 ------- null}
- -t 1.13136283967467 -s 2 -d 0 -p exp -e 1540 -c 0 -i 6 -a 0 -x {2.0 3.0 0 ------- null}
h -t 1.13136283967467 -s 2 -d 0 -p exp -e 1540 -c 0 -i 6 -a 0 -x {2.0 3.0 -1 ------- null}
+ -t 1.13136283967467 -s 2 -d 0 -p exp -e 1540 -c 0 -i 7 -a 0 -x {2.0 3.0 0 ------- null}
r -t 1.19996283967467 -s 1 -d 3 -p exp -e 1540 -c 0 -i 3 -a 0 -x {2.0 3.0 0 ------- null}
+ -t 1.19996283967467 -s 3 -d 1 -p ack -e 40 -c 0 -i 8 -a 0 -x {3.0 2.0 2 ------- null}
- -t 1.19996283967467 -s 3 -d 1 -p ack -e 40 -c 0 -i 8 -a 0 -x {3.0 2.0 2 ------- null}
h -t 1.19996283967467 -s 3 -d 1 -p ack -e 40 -c 0 -i 8 -a 0 -x {3.0 2.0 -1 ------- null}
r -t 1.21816283967467 -s 3 -d 1 -p ack -e 40 -c 0 -i 8 -a 0 -x {3.0 2.0 2 ------- null}
+ -t 1.21816283967467 -s 1 -d 0 -p ack -e 40 -c 0 -i 8 -a 0 -x {3.0 2.0 2 ------- null}
- -t 1.21816283967467 -s 1 -d 0 -p ack -e 40 -c 0 -i 8 -a 0 -x {3.0 2.0 2 ------- null}
h -t 1.21816283967467 -s 1 -d 0 -p ack -e 40 -c 0 -i 8 -a 0 -x {3.0 2.0 -1 ------- null}
r -t 1.23636283967467 -s 1 -d 0 -p ack -e 40 -c 0 -i 8 -a 0 -x {3.0 2.0 2 ------- null}
+ -t 1.23636283967467 -s 0 -d 2 -p ack -e 40 -c 0 -i 8 -a 0 -x {3.0 2.0 2 ------- null}
- -t 1.23636283967467 -s 0 -d 2 -p ack -e 40 -c 0 -i 8 -a 0 -x {3.0 2.0 2 ------- null}
h -t 1.23636283967467 -s 0 -d 2 -p ack -e 40 -c 0 -i 8 -a 0 -x {3.0 2.0 -1 ------- null}
r -t 1.25456283967467 -s 0 -d 2 -p ack -e 40 -c 0 -i 8 -a 0 -x {3.0 2.0 2 ------- null}
+ -t 1.25456283967467 -s 2 -d 0 -p exp -e 1540 -c 0 -i 9 -a 0 -x {2.0 3.0 0 ------- null}
- -t 1.25456283967467 -s 2 -d 0 -p exp -e 1540 -c 0 -i 7 -a 0 -x {2.0 3.0 0 ------- null}
h -t 1.25456283967467 -s 2 -d 0 -p exp -e 1540 -c 0 -i 7 -a 0 -x {2.0 3.0 -1 ------- null}
r -t 1.26856283967467 -s 0 -d 1 -p exp -e 1540 -c 0 -i 4 -a 0 -x {2.0 3.0 0 ---A--- null}
+ -t 1.26856283967467 -s 1 -d 3 -p exp -e 1540 -c 0 -i 4 -a 0 -x {2.0 3.0 0 ---A--- null}
- -t 1.26856283967467 -s 1 -d 3 -p exp -e 1540 -c 0 -i 4 -a 0 -x {2.0 3.0 0 ---A--- null}
h -t 1.26856283967467 -s 1 -d 3 -p exp -e 1540 -c 0 -i 4 -a 0 -x {2.0 3.0 -1 ---A--- null}
r -t 1.26956283967467 -s 2 -d 0 -p exp -e 1540 -c 0 -i 6 -a 0 -x {2.0 3.0 0 ------- null}
+ -t 1.26956283967467 -s 0 -d 1 -p exp -e 1540 -c 0 -i 6 -a 0 -x {2.0 3.0 0 ------- null}
- -t 1.26956283967467 -s 0 -d 1 -p exp -e 1540 -c 0 -i 6 -a 0 -x {2.0 3.0 0 ------- null}
h -t 1.26956283967467 -s 0 -d 1 -p exp -e 1540 -c 0 -i 6 -a 0 -x {2.0 3.0 -1 ------- null}
- -t 1.37776283967467 -s 2 -d 0 -p exp -e 1540 -c 0 -i 9 -a 0 -x {2.0 3.0 0 ------- null}
h -t 1.37776283967467 -s 2 -d 0 -p exp -e 1540 -c 0 -i 9 -a 0 -x {2.0 3.0 -1 ------- null}
r -t 1.39276283967467 -s 2 -d 0 -p exp -e 1540 -c 0 -i 7 -a 0 -x {2.0 3.0 0 ------- null}
+ -t 1.39276283967467 -s 0 -d 1 -p exp -e 1540 -c 0 -i 7 -a 0 -x {2.0 3.0 0 ------- null}
- -t 1.39276283967467 -s 0 -d 1 -p exp -e 1540 -c 0 -i 7 -a 0 -x {2.0 3.0 0 ------- null}
h -t 1.39276283967467 -s 0 -d 1 -p exp -e 1540 -c 0 -i 7 -a 0 -x {2.0 3.0 -1 ------- null}
r -t 1.40676283967467 -s 1 -d 3 -p exp -e 1540 -c 0 -i 4 -a 0 -x {2.0 3.0 0 ---A--- null}
+ -t 1.40676283967467 -s 3 -d 1 -p ack -e 40 -c 0 -i 10 -a 0 -x {3.0 2.0 2 ------- null}
- -t 1.40676283967467 -s 3 -d 1 -p ack -e 40 -c 0 -i 10 -a 0 -x {3.0 2.0 2 ------- null}
h -t 1.40676283967467 -s 3 -d 1 -p ack -e 40 -c 0 -i 10 -a 0 -x {3.0 2.0 -1 ------- null}
r -t 1.40776283967467 -s 0 -d 1 -p exp -e 1540 -c 0 -i 6 -a 0 -x {2.0 3.0 0 ------- null}
+ -t 1.40776283967467 -s 1 -d 3 -p exp -e 1540 -c 0 -i 6 -a 0 -x {2.0 3.0 0 ------- null}
- -t 1.40776283967467 -s 1 -d 3 -p exp -e 1540 -c 0 -i 6 -a 0 -x {2.0 3.0 0 ------- null}
h -t 1.40776283967467 -s 1 -d 3 -p exp -e 1540 -c 0 -i 6 -a 0 -x {2.0 3.0 -1 ------- null}
+ -t 1.40791044262846 -s 4 -d 0 -p exp -e 40 -c 0 -i 11 -a 0 -x {4.0 5.0 0 ------- null}
- -t 1.40791044262846 -s 4 -d 0 -p exp -e 40 -c 0 -i 11 -a 0 -x {4.0 5.0 0 ------- null}
h -t 1.40791044262846 -s 4 -d 0 -p exp -e 40 -c 0 -i 11 -a 0 -x {4.0 5.0 -1 ------- null}
r -t 1.42496283967467 -s 3 -d 1 -p ack -e 40 -c 0 -i 10 -a 0 -x {3.0 2.0 2 ------- null}
+ -t 1.42496283967467 -s 1 -d 0 -p ack -e 40 -c 0 -i 10 -a 0 -x {3.0 2.0 2 ------- null}
- -t 1.42496283967467 -s 1 -d 0 -p ack -e 40 -c 0 -i 10 -a 0 -x {3.0 2.0 2 ------- null}
h -t 1.42496283967467 -s 1 -d 0 -p ack -e 40 -c 0 -i 10 -a 0 -x {3.0 2.0 -1 ------- null}
r -t 1.42611044262846 -s 4 -d 0 -p exp -e 40 -c 0 -i 11 -a 0 -x {4.0 5.0 0 ------- null}
+ -t 1.42611044262846 -s 0 -d 1 -p exp -e 40 -c 0 -i 11 -a 0 -x {4.0 5.0 0 ------- null}
r -t 1.44316283967467 -s 1 -d 0 -p ack -e 40 -c 0 -i 10 -a 0 -x {3.0 2.0 2 ------- null}
+ -t 1.44316283967467 -s 0 -d 2 -p ack -e 40 -c 0 -i 10 -a 0 -x {3.0 2.0 2 ------- null}
- -t 1.44316283967467 -s 0 -d 2 -p ack -e 40 -c 0 -i 10 -a 0 -x {3.0 2.0 2 ------- null}
h -t 1.44316283967467 -s 0 -d 2 -p ack -e 40 -c 0 -i 10 -a 0 -x {3.0 2.0 -1 ------- null}
r -t 1.46136283967467 -s 0 -d 2 -p ack -e 40 -c 0 -i 10 -a 0 -x {3.0 2.0 2 ------- null}
+ -t 1.46136283967467 -s 2 -d 0 -p exp -e 1540 -c 0 -i 12 -a 0 -x {2.0 3.0 0 ------- null}
- -t 1.50096283967467 -s 2 -d 0 -p exp -e 1540 -c 0 -i 12 -a 0 -x {2.0 3.0 0 ------- null}
h -t 1.50096283967467 -s 2 -d 0 -p exp -e 1540 -c 0 -i 12 -a 0 -x {2.0 3.0 -1 ------- null}
r -t 1.51596283967467 -s 2 -d 0 -p exp -e 1540 -c 0 -i 9 -a 0 -x {2.0 3.0 0 ------- null}
+ -t 1.51596283967467 -s 0 -d 1 -p exp -e 1540 -c 0 -i 9 -a 0 -x {2.0 3.0 0 ------- null}
- -t 1.51596283967467 -s 0 -d 1 -p exp -e 40 -c 0 -i 11 -a 0 -x {4.0 5.0 0 ------- null}
h -t 1.51596283967467 -s 0 -d 1 -p exp -e 40 -c 0 -i 11 -a 0 -x {4.0 5.0 -1 ------- null}
- -t 1.51916283967467 -s 0 -d 1 -p exp -e 1540 -c 0 -i 9 -a 0 -x {2.0 3.0 0 ------- null}
h -t 1.51916283967467 -s 0 -d 1 -p exp -e 1540 -c 0 -i 9 -a 0 -x {2.0 3.0 -1 ------- null}
r -t 1.53096283967467 -s 0 -d 1 -p exp -e 1540 -c 0 -i 7 -a 0 -x {2.0 3.0 0 ------- null}
+ -t 1.53096283967467 -s 1 -d 3 -p exp -e 1540 -c 0 -i 7 -a 0 -x {2.0 3.0 0 ------- null}
- -t 1.53096283967467 -s 1 -d 3 -p exp -e 1540 -c 0 -i 7 -a 0 -x {2.0 3.0 0 ------- null}
h -t 1.53096283967467 -s 1 -d 3 -p exp -e 1540 -c 0 -i 7 -a 0 -x {2.0 3.0 -1 ------- null}
r -t 1.53416283967467 -s 0 -d 1 -p exp -e 40 -c 0 -i 11 -a 0 -x {4.0 5.0 0 ------- null}
+ -t 1.53416283967467 -s 1 -d 5 -p exp -e 40 -c 0 -i 11 -a 0 -x {4.0 5.0 0 ------- null}
- -t 1.53416283967467 -s 1 -d 5 -p exp -e 40 -c 0 -i 11 -a 0 -x {4.0 5.0 0 ------- null}
h -t 1.53416283967467 -s 1 -d 5 -p exp -e 40 -c 0 -i 11 -a 0 -x {4.0 5.0 -1 ------- null}
r -t 1.54596283967467 -s 1 -d 3 -p exp -e 1540 -c 0 -i 6 -a 0 -x {2.0 3.0 0 ------- null}
+ -t 1.54596283967467 -s 3 -d 1 -p ack -e 40 -c 0 -i 13 -a 0 -x {3.0 2.0 2 ------- null}
- -t 1.54596283967467 -s 3 -d 1 -p ack -e 40 -c 0 -i 13 -a 0 -x {3.0 2.0 2 ------- null}
h -t 1.54596283967467 -s 3 -d 1 -p ack -e 40 -c 0 -i 13 -a 0 -x {3.0 2.0 -1 ------- null}
r -t 1.55236283967467 -s 1 -d 5 -p exp -e 40 -c 0 -i 11 -a 0 -x {4.0 5.0 0 ------- null}
+ -t 1.55236283967467 -s 5 -d 1 -p ack -e 40 -c 0 -i 14 -a 0 -x {5.0 4.0 0 ------- null}
- -t 1.55236283967467 -s 5 -d 1 -p ack -e 40 -c 0 -i 14 -a 0 -x {5.0 4.0 0 ------- null}
h -t 1.55236283967467 -s 5 -d 1 -p ack -e 40 -c 0 -i 14 -a 0 -x {5.0 4.0 -1 ------- null}
r -t 1.56416283967467 -s 3 -d 1 -p ack -e 40 -c 0 -i 13 -a 0 -x {3.0 2.0 2 ------- null}
+ -t 1.56416283967467 -s 1 -d 0 -p ack -e 40 -c 0 -i 13 -a 0 -x {3.0 2.0 2 ------- null}
- -t 1.56416283967467 -s 1 -d 0 -p ack -e 40 -c 0 -i 13 -a 0 -x {3.0 2.0 2 ------- null}
h -t 1.56416283967467 -s 1 -d 0 -p ack -e 40 -c 0 -i 13 -a 0 -x {3.0 2.0 -1 ------- null}
r -t 1.57056283967467 -s 5 -d 1 -p ack -e 40 -c 0 -i 14 -a 0 -x {5.0 4.0 0 ------- null}
+ -t 1.57056283967467 -s 1 -d 0 -p ack -e 40 -c 0 -i 14 -a 0 -x {5.0 4.0 0 ------- null}
- -t 1.57056283967467 -s 1 -d 0 -p ack -e 40 -c 0 -i 14 -a 0 -x {5.0 4.0 0 ------- null}
h -t 1.57056283967467 -s 1 -d 0 -p ack -e 40 -c 0 -i 14 -a 0 -x {5.0 4.0 -1 ------- null}
r -t 1.58236283967467 -s 1 -d 0 -p ack -e 40 -c 0 -i 13 -a 0 -x {3.0 2.0 2 ------- null}
+ -t 1.58236283967467 -s 0 -d 2 -p ack -e 40 -c 0 -i 13 -a 0 -x {3.0 2.0 2 ------- null}
- -t 1.58236283967467 -s 0 -d 2 -p ack -e 40 -c 0 -i 13 -a 0 -x {3.0 2.0 2 ------- null}
h -t 1.58236283967467 -s 0 -d 2 -p ack -e 40 -c 0 -i 13 -a 0 -x {3.0 2.0 -1 ------- null}
r -t 1.58876283967467 -s 1 -d 0 -p ack -e 40 -c 0 -i 14 -a 0 -x {5.0 4.0 0 ------- null}
+ -t 1.58876283967467 -s 0 -d 4 -p ack -e 40 -c 0 -i 14 -a 0 -x {5.0 4.0 0 ------- null}
- -t 1.58876283967467 -s 0 -d 4 -p ack -e 40 -c 0 -i 14 -a 0 -x {5.0 4.0 0 ------- null}
h -t 1.58876283967467 -s 0 -d 4 -p ack -e 40 -c 0 -i 14 -a 0 -x {5.0 4.0 -1 ------- null}
r -t 1.60056283967467 -s 0 -d 2 -p ack -e 40 -c 0 -i 13 -a 0 -x {3.0 2.0 2 ------- null}
+ -t 1.60056283967467 -s 2 -d 0 -p exp -e 1540 -c 0 -i 15 -a 0 -x {2.0 3.0 0 ------- null}
r -t 1.60696283967467 -s 0 -d 4 -p ack -e 40 -c 0 -i 14 -a 0 -x {5.0 4.0 0 ------- null}
+ -t 1.60696283967467 -s 4 -d 0 -p exp -e 1540 -c 0 -i 16 -a 0 -x {4.0 5.0 0 ------- null}
- -t 1.60696283967467 -s 4 -d 0 -p exp -e 1540 -c 0 -i 16 -a 0 -x {4.0 5.0 0 ------- null}
h -t 1.60696283967467 -s 4 -d 0 -p exp -e 1540 -c 0 -i 16 -a 0 -x {4.0 5.0 -1 ------- null}
+ -t 1.60696283967467 -s 4 -d 0 -p exp -e 1540 -c 0 -i 17 -a 0 -x {4.0 5.0 0 ------- null}
- -t 1.62416283967467 -s 2 -d 0 -p exp -e 1540 -c 0 -i 15 -a 0 -x {2.0 3.0 0 ------- null}
h -t 1.62416283967467 -s 2 -d 0 -p exp -e 1540 -c 0 -i 15 -a 0 -x {2.0 3.0 -1 ------- null}
r -t 1.63916283967467 -s 2 -d 0 -p exp -e 1540 -c 0 -i 12 -a 0 -x {2.0 3.0 0 ------- null}
+ -t 1.63916283967467 -s 0 -d 1 -p exp -e 1540 -c 0 -i 12 -a 0 -x {2.0 3.0 0 ------- null}
- -t 1.64236283967467 -s 0 -d 1 -p exp -e 1540 -c 0 -i 12 -a 0 -x {2.0 3.0 0 ------- null}
h -t 1.64236283967467 -s 0 -d 1 -p exp -e 1540 -c 0 -i 12 -a 0 -x {2.0 3.0 -1 ------- null}
r -t 1.65736283967467 -s 0 -d 1 -p exp -e 1540 -c 0 -i 9 -a 0 -x {2.0 3.0 0 ------- null}
+ -t 1.65736283967467 -s 1 -d 3 -p exp -e 1540 -c 0 -i 9 -a 0 -x {2.0 3.0 0 ------- null}
- -t 1.65736283967467 -s 1 -d 3 -p exp -e 1540 -c 0 -i 9 -a 0 -x {2.0 3.0 0 ------- null}
h -t 1.65736283967467 -s 1 -d 3 -p exp -e 1540 -c 0 -i 9 -a 0 -x {2.0 3.0 -1 ------- null}
r -t 1.66916283967467 -s 1 -d 3 -p exp -e 1540 -c 0 -i 7 -a 0 -x {2.0 3.0 0 ------- null}
+ -t 1.66916283967467 -s 3 -d 1 -p ack -e 40 -c 0 -i 18 -a 0 -x {3.0 2.0 3 ------- null}
- -t 1.66916283967467 -s 3 -d 1 -p ack -e 40 -c 0 -i 18 -a 0 -x {3.0 2.0 3 ------- null}
h -t 1.66916283967467 -s 3 -d 1 -p ack -e 40 -c 0 -i 18 -a 0 -x {3.0 2.0 -1 ------- null}
r -t 1.68736283967467 -s 3 -d 1 -p ack -e 40 -c 0 -i 18 -a 0 -x {3.0 2.0 3 ------- null}
+ -t 1.68736283967467 -s 1 -d 0 -p ack -e 40 -c 0 -i 18 -a 0 -x {3.0 2.0 3 ------- null}
- -t 1.68736283967467 -s 1 -d 0 -p ack -e 40 -c 0 -i 18 -a 0 -x {3.0 2.0 3 ------- null}
h -t 1.68736283967467 -s 1 -d 0 -p ack -e 40 -c 0 -i 18 -a 0 -x {3.0 2.0 -1 ------- null}
r -t 1.70556283967467 -s 1 -d 0 -p ack -e 40 -c 0 -i 18 -a 0 -x {3.0 2.0 3 ------- null}
+ -t 1.70556283967467 -s 0 -d 2 -p ack -e 40 -c 0 -i 18 -a 0 -x {3.0 2.0 3 ------- null}
- -t 1.70556283967467 -s 0 -d 2 -p ack -e 40 -c 0 -i 18 -a 0 -x {3.0 2.0 3 ------- null}
h -t 1.70556283967467 -s 0 -d 2 -p ack -e 40 -c 0 -i 18 -a 0 -x {3.0 2.0 -1 ------- null}
r -t 1.72376283967467 -s 0 -d 2 -p ack -e 40 -c 0 -i 18 -a 0 -x {3.0 2.0 3 ------- null}
- -t 1.73016283967467 -s 4 -d 0 -p exp -e 1540 -c 0 -i 17 -a 0 -x {4.0 5.0 0 ------- null}
h -t 1.73016283967467 -s 4 -d 0 -p exp -e 1540 -c 0 -i 17 -a 0 -x {4.0 5.0 -1 ------- null}
r -t 1.74516283967467 -s 4 -d 0 -p exp -e 1540 -c 0 -i 16 -a 0 -x {4.0 5.0 0 ------- null}
+ -t 1.74516283967467 -s 0 -d 1 -p exp -e 1540 -c 0 -i 16 -a 0 -x {4.0 5.0 0 ------- null}
r -t 1.76236283967467 -s 2 -d 0 -p exp -e 1540 -c 0 -i 15 -a 0 -x {2.0 3.0 0 ------- null}
+ -t 1.76236283967467 -s 0 -d 1 -p exp -e 1540 -c 0 -i 15 -a 0 -x {2.0 3.0 0 ------- null}
- -t 1.76556283967467 -s 0 -d 1 -p exp -e 1540 -c 0 -i 16 -a 0 -x {4.0 5.0 0 ------- null}
h -t 1.76556283967467 -s 0 -d 1 -p exp -e 1540 -c 0 -i 16 -a 0 -x {4.0 5.0 -1 ------- null}
r -t 1.78056283967467 -s 0 -d 1 -p exp -e 1540 -c 0 -i 12 -a 0 -x {2.0 3.0 0 ------- null}
+ -t 1.78056283967467 -s 1 -d 3 -p exp -e 1540 -c 0 -i 12 -a 0 -x {2.0 3.0 0 ------- null}
- -t 1.78056283967467 -s 1 -d 3 -p exp -e 1540 -c 0 -i 12 -a 0 -x {2.0 3.0 0 ------- null}
h -t 1.78056283967467 -s 1 -d 3 -p exp -e 1540 -c 0 -i 12 -a 0 -x {2.0 3.0 -1 ------- null}
r -t 1.79556283967467 -s 1 -d 3 -p exp -e 1540 -c 0 -i 9 -a 0 -x {2.0 3.0 0 ------- null}
+ -t 1.79556283967467 -s 3 -d 1 -p ack -e 40 -c 0 -i 19 -a 0 -x {3.0 2.0 4 ------- null}
- -t 1.79556283967467 -s 3 -d 1 -p ack -e 40 -c 0 -i 19 -a 0 -x {3.0 2.0 4 ------- null}
h -t 1.79556283967467 -s 3 -d 1 -p ack -e 40 -c 0 -i 19 -a 0 -x {3.0 2.0 -1 ------- null}
r -t 1.81376283967467 -s 3 -d 1 -p ack -e 40 -c 0 -i 19 -a 0 -x {3.0 2.0 4 ------- null}
+ -t 1.81376283967467 -s 1 -d 0 -p ack -e 40 -c 0 -i 19 -a 0 -x {3.0 2.0 4 ------- null}
- -t 1.81376283967467 -s 1 -d 0 -p ack -e 40 -c 0 -i 19 -a 0 -x {3.0 2.0 4 ------- null}
h -t 1.81376283967467 -s 1 -d 0 -p ack -e 40 -c 0 -i 19 -a 0 -x {3.0 2.0 -1 ------- null}
r -t 1.83196283967467 -s 1 -d 0 -p ack -e 40 -c 0 -i 19 -a 0 -x {3.0 2.0 4 ------- null}
+ -t 1.83196283967467 -s 0 -d 2 -p ack -e 40 -c 0 -i 19 -a 0 -x {3.0 2.0 4 ------- null}
- -t 1.83196283967467 -s 0 -d 2 -p ack -e 40 -c 0 -i 19 -a 0 -x {3.0 2.0 4 ------- null}
h -t 1.83196283967467 -s 0 -d 2 -p ack -e 40 -c 0 -i 19 -a 0 -x {3.0 2.0 -1 ------- null}
r -t 1.85016283967467 -s 0 -d 2 -p ack -e 40 -c 0 -i 19 -a 0 -x {3.0 2.0 4 ------- null}
+ -t 1.85016283967467 -s 2 -d 0 -p exp -e 1540 -c 0 -i 20 -a 0 -x {2.0 3.0 0 ------- null}
- -t 1.85016283967467 -s 2 -d 0 -p exp -e 1540 -c 0 -i 20 -a 0 -x {2.0 3.0 0 ------- null}
h -t 1.85016283967467 -s 2 -d 0 -p exp -e 1540 -c 0 -i 20 -a 0 -x {2.0 3.0 -1 ------- null}
r -t 1.86836283967467 -s 4 -d 0 -p exp -e 1540 -c 0 -i 17 -a 0 -x {4.0 5.0 0 ------- null}
+ -t 1.86836283967467 -s 0 -d 1 -p exp -e 1540 -c 0 -i 17 -a 0 -x {4.0 5.0 0 ------- null}
- -t 1.88876283967467 -s 0 -d 1 -p exp -e 1540 -c 0 -i 15 -a 0 -x {2.0 3.0 0 ------- null}
h -t 1.88876283967467 -s 0 -d 1 -p exp -e 1540 -c 0 -i 15 -a 0 -x {2.0 3.0 -1 ------- null}
r -t 1.90376283967467 -s 0 -d 1 -p exp -e 1540 -c 0 -i 16 -a 0 -x {4.0 5.0 0 ------- null}
+ -t 1.90376283967467 -s 1 -d 5 -p exp -e 1540 -c 0 -i 16 -a 0 -x {4.0 5.0 0 ------- null}
- -t 1.90376283967467 -s 1 -d 5 -p exp -e 1540 -c 0 -i 16 -a 0 -x {4.0 5.0 0 ------- null}
h -t 1.90376283967467 -s 1 -d 5 -p exp -e 1540 -c 0 -i 16 -a 0 -x {4.0 5.0 -1 ------- null}
r -t 1.91876283967467 -s 1 -d 3 -p exp -e 1540 -c 0 -i 12 -a 0 -x {2.0 3.0 0 ------- null}
+ -t 1.91876283967467 -s 3 -d 1 -p ack -e 40 -c 0 -i 21 -a 0 -x {3.0 2.0 5 ------- null}
- -t 1.91876283967467 -s 3 -d 1 -p ack -e 40 -c 0 -i 21 -a 0 -x {3.0 2.0 5 ------- null}
h -t 1.91876283967467 -s 3 -d 1 -p ack -e 40 -c 0 -i 21 -a 0 -x {3.0 2.0 -1 ------- null}
r -t 1.93696283967467 -s 3 -d 1 -p ack -e 40 -c 0 -i 21 -a 0 -x {3.0 2.0 5 ------- null}
+ -t 1.93696283967467 -s 1 -d 0 -p ack -e 40 -c 0 -i 21 -a 0 -x {3.0 2.0 5 ------- null}
- -t 1.93696283967467 -s 1 -d 0 -p ack -e 40 -c 0 -i 21 -a 0 -x {3.0 2.0 5 ------- null}
h -t 1.93696283967467 -s 1 -d 0 -p ack -e 40 -c 0 -i 21 -a 0 -x {3.0 2.0 -1 ------- null}
r -t 1.95516283967467 -s 1 -d 0 -p ack -e 40 -c 0 -i 21 -a 0 -x {3.0 2.0 5 ------- null}
+ -t 1.95516283967467 -s 0 -d 2 -p ack -e 40 -c 0 -i 21 -a 0 -x {3.0 2.0 5 ------- null}
- -t 1.95516283967467 -s 0 -d 2 -p ack -e 40 -c 0 -i 21 -a 0 -x {3.0 2.0 5 ------- null}
h -t 1.95516283967467 -s 0 -d 2 -p ack -e 40 -c 0 -i 21 -a 0 -x {3.0 2.0 -1 ------- null}
r -t 1.97336283967467 -s 0 -d 2 -p ack -e 40 -c 0 -i 21 -a 0 -x {3.0 2.0 5 ------- null}
+ -t 1.97336283967467 -s 2 -d 0 -p exp -e 1540 -c 0 -i 22 -a 0 -x {2.0 3.0 0 ------- null}
- -t 1.97336283967467 -s 2 -d 0 -p exp -e 1540 -c 0 -i 22 -a 0 -x {2.0 3.0 0 ------- null}
h -t 1.97336283967467 -s 2 -d 0 -p exp -e 1540 -c 0 -i 22 -a 0 -x {2.0 3.0 -1 ------- null}
r -t 1.98836283967467 -s 2 -d 0 -p exp -e 1540 -c 0 -i 20 -a 0 -x {2.0 3.0 0 ------- null}
+ -t 1.98836283967467 -s 0 -d 1 -p exp -e 1540 -c 0 -i 20 -a 0 -x {2.0 3.0 0 ------- null}
- -t 2.01196283967467 -s 0 -d 1 -p exp -e 1540 -c 0 -i 17 -a 0 -x {4.0 5.0 0 ------- null}
h -t 2.01196283967467 -s 0 -d 1 -p exp -e 1540 -c 0 -i 17 -a 0 -x {4.0 5.0 -1 ------- null}
r -t 2.02696283967467 -s 0 -d 1 -p exp -e 1540 -c 0 -i 15 -a 0 -x {2.0 3.0 0 ------- null}
+ -t 2.02696283967467 -s 1 -d 3 -p exp -e 1540 -c 0 -i 15 -a 0 -x {2.0 3.0 0 ------- null}
- -t 2.02696283967467 -s 1 -d 3 -p exp -e 1540 -c 0 -i 15 -a 0 -x {2.0 3.0 0 ------- null}
h -t 2.02696283967467 -s 1 -d 3 -p exp -e 1540 -c 0 -i 15 -a 0 -x {2.0 3.0 -1 ------- null}
r -t 2.04196283967467 -s 1 -d 5 -p exp -e 1540 -c 0 -i 16 -a 0 -x {4.0 5.0 0 ------- null}
+ -t 2.04196283967467 -s 5 -d 1 -p ack -e 40 -c 0 -i 23 -a 0 -x {5.0 4.0 1 ------- null}
- -t 2.04196283967467 -s 5 -d 1 -p ack -e 40 -c 0 -i 23 -a 0 -x {5.0 4.0 1 ------- null}
h -t 2.04196283967467 -s 5 -d 1 -p ack -e 40 -c 0 -i 23 -a 0 -x {5.0 4.0 -1 ------- null}
r -t 2.06016283967467 -s 5 -d 1 -p ack -e 40 -c 0 -i 23 -a 0 -x {5.0 4.0 1 ------- null}
+ -t 2.06016283967467 -s 1 -d 0 -p ack -e 40 -c 0 -i 23 -a 0 -x {5.0 4.0 1 ------- null}
- -t 2.06016283967467 -s 1 -d 0 -p ack -e 40 -c 0 -i 23 -a 0 -x {5.0 4.0 1 ------- null}
h -t 2.06016283967467 -s 1 -d 0 -p ack -e 40 -c 0 -i 23 -a 0 -x {5.0 4.0 -1 ------- null}
r -t 2.07836283967467 -s 1 -d 0 -p ack -e 40 -c 0 -i 23 -a 0 -x {5.0 4.0 1 ------- null}
+ -t 2.07836283967467 -s 0 -d 4 -p ack -e 40 -c 0 -i 23 -a 0 -x {5.0 4.0 1 ------- null}
- -t 2.07836283967467 -s 0 -d 4 -p ack -e 40 -c 0 -i 23 -a 0 -x {5.0 4.0 1 ------- null}
h -t 2.07836283967467 -s 0 -d 4 -p ack -e 40 -c 0 -i 23 -a 0 -x {5.0 4.0 -1 ------- null}
r -t 2.09656283967467 -s 0 -d 4 -p ack -e 40 -c 0 -i 23 -a 0 -x {5.0 4.0 1 ------- null}
+ -t 2.09656283967467 -s 4 -d 0 -p exp -e 1540 -c 0 -i 24 -a 0 -x {4.0 5.0 0 ------- null}
- -t 2.09656283967467 -s 4 -d 0 -p exp -e 1540 -c 0 -i 24 -a 0 -x {4.0 5.0 0 ------- null}
h -t 2.09656283967467 -s 4 -d 0 -p exp -e 1540 -c 0 -i 24 -a 0 -x {4.0 5.0 -1 ------- null}
+ -t 2.09656283967467 -s 4 -d 0 -p exp -e 1540 -c 0 -i 25 -a 0 -x {4.0 5.0 0 ------- null}
r -t 2.11156283967467 -s 2 -d 0 -p exp -e 1540 -c 0 -i 22 -a 0 -x {2.0 3.0 0 ------- null}
+ -t 2.11156283967467 -s 0 -d 1 -p exp -e 1540 -c 0 -i 22 -a 0 -x {2.0 3.0 0 ------- null}
- -t 2.13516283967467 -s 0 -d 1 -p exp -e 1540 -c 0 -i 20 -a 0 -x {2.0 3.0 0 ------- null}
h -t 2.13516283967467 -s 0 -d 1 -p exp -e 1540 -c 0 -i 20 -a 0 -x {2.0 3.0 -1 ------- null}
r -t 2.15016283967467 -s 0 -d 1 -p exp -e 1540 -c 0 -i 17 -a 0 -x {4.0 5.0 0 ------- null}
+ -t 2.15016283967467 -s 1 -d 5 -p exp -e 1540 -c 0 -i 17 -a 0 -x {4.0 5.0 0 ------- null}
- -t 2.15016283967467 -s 1 -d 5 -p exp -e 1540 -c 0 -i 17 -a 0 -x {4.0 5.0 0 ------- null}
h -t 2.15016283967467 -s 1 -d 5 -p exp -e 1540 -c 0 -i 17 -a 0 -x {4.0 5.0 -1 ------- null}
+ -t 2.16200222416598 -s 6 -d 0 -p exp -e 40 -c 0 -i 26 -a 0 -x {6.0 7.0 0 ------- null}
- -t 2.16200222416598 -s 6 -d 0 -p exp -e 40 -c 0 -i 26 -a 0 -x {6.0 7.0 0 ------- null}
h -t 2.16200222416598 -s 6 -d 0 -p exp -e 40 -c 0 -i 26 -a 0 -x {6.0 7.0 -1 ------- null}
r -t 2.16516283967467 -s 1 -d 3 -p exp -e 1540 -c 0 -i 15 -a 0 -x {2.0 3.0 0 ------- null}
+ -t 2.16516283967467 -s 3 -d 1 -p ack -e 40 -c 0 -i 27 -a 0 -x {3.0 2.0 6 ------- null}
- -t 2.16516283967467 -s 3 -d 1 -p ack -e 40 -c 0 -i 27 -a 0 -x {3.0 2.0 6 ------- null}
h -t 2.16516283967467 -s 3 -d 1 -p ack -e 40 -c 0 -i 27 -a 0 -x {3.0 2.0 -1 ------- null}
r -t 2.18020222416598 -s 6 -d 0 -p exp -e 40 -c 0 -i 26 -a 0 -x {6.0 7.0 0 ------- null}
+ -t 2.18020222416598 -s 0 -d 1 -p exp -e 40 -c 0 -i 26 -a 0 -x {6.0 7.0 0 ------- null}
r -t 2.18336283967467 -s 3 -d 1 -p ack -e 40 -c 0 -i 27 -a 0 -x {3.0 2.0 6 ------- null}
+ -t 2.18336283967467 -s 1 -d 0 -p ack -e 40 -c 0 -i 27 -a 0 -x {3.0 2.0 6 ------- null}
- -t 2.18336283967467 -s 1 -d 0 -p ack -e 40 -c 0 -i 27 -a 0 -x {3.0 2.0 6 ------- null}
h -t 2.18336283967467 -s 1 -d 0 -p ack -e 40 -c 0 -i 27 -a 0 -x {3.0 2.0 -1 ------- null}
r -t 2.20156283967467 -s 1 -d 0 -p ack -e 40 -c 0 -i 27 -a 0 -x {3.0 2.0 6 ------- null}
+ -t 2.20156283967467 -s 0 -d 2 -p ack -e 40 -c 0 -i 27 -a 0 -x {3.0 2.0 6 ------- null}
- -t 2.20156283967467 -s 0 -d 2 -p ack -e 40 -c 0 -i 27 -a 0 -x {3.0 2.0 6 ------- null}
h -t 2.20156283967467 -s 0 -d 2 -p ack -e 40 -c 0 -i 27 -a 0 -x {3.0 2.0 -1 ------- null}
- -t 2.21976283967467 -s 4 -d 0 -p exp -e 1540 -c 0 -i 25 -a 0 -x {4.0 5.0 0 ------- null}
h -t 2.21976283967467 -s 4 -d 0 -p exp -e 1540 -c 0 -i 25 -a 0 -x {4.0 5.0 -1 ------- null}
r -t 2.21976283967467 -s 0 -d 2 -p ack -e 40 -c 0 -i 27 -a 0 -x {3.0 2.0 6 ------- null}
+ -t 2.21976283967467 -s 2 -d 0 -p exp -e 1540 -c 0 -i 28 -a 0 -x {2.0 3.0 0 ------- null}
- -t 2.21976283967467 -s 2 -d 0 -p exp -e 1540 -c 0 -i 28 -a 0 -x {2.0 3.0 0 ------- null}
h -t 2.21976283967467 -s 2 -d 0 -p exp -e 1540 -c 0 -i 28 -a 0 -x {2.0 3.0 -1 ------- null}
r -t 2.23476283967467 -s 4 -d 0 -p exp -e 1540 -c 0 -i 24 -a 0 -x {4.0 5.0 0 ------- null}
+ -t 2.23476283967467 -s 0 -d 1 -p exp -e 1540 -c 0 -i 24 -a 0 -x {4.0 5.0 0 ------- null}
- -t 2.25836283967467 -s 0 -d 1 -p exp -e 1540 -c 0 -i 22 -a 0 -x {2.0 3.0 0 ------- null}