V -t * -v 1.0a5 -a 0
A -t * -n 1 -p 0 -o 0x7fffffff -c 30 -a 1
A -t * -h 1 -m 1073741823 -s 0
n -t * -a 0 -s 0 -S UP -v circle -c black -i black
n -t * -a 1 -s 1 -S UP -v circle -c black -i black
n -t * -a 2 -s 2 -S UP -v circle -c black -i black
n -t * -a 3 -s 3 -S UP -v circle -c black -i black
l -t * -s 0 -d 1 -S UP -r 100000 -D 0.014999999999999999 -c black
l -t * -s 2 -d 0 -S UP -r 100000 -D 0.014999999999999999 -c black
l -t * -s 3 -d 1 -S UP -r 100000 -D 0.014999999999999999 -c black
+ -t 1.24076272150262 -s 2 -d 0 -p exp -e 40 -c 0 -i 0 -a 0 -x {2.0 3.0 0 ------- null}
- -t 1.24076272150262 -s 2 -d 0 -p exp -e 40 -c 0 -i 0 -a 0 -x {2.0 3.0 0 ------- null}
h -t 1.24076272150262 -s 2 -d 0 -p exp -e 40 -c 0 -i 0 -a 0 -x {2.0 3.0 -1 ------- null}
r -t 1.25896272150262 -s 2 -d 0 -p exp -e 40 -c 0 -i 0 -a 0 -x {2.0 3.0 0 ------- null}
+ -t 1.25896272150262 -s 0 -d 1 -p exp -e 40 -c 0 -i 0 -a 0 -x {2.0 3.0 0 ------- null}
- -t 1.25896272150262 -s 0 -d 1 -p exp -e 40 -c 0 -i 0 -a 0 -x {2.0 3.0 0 ------- null}
h -t 1.25896272150262 -s 0 -d 1 -p exp -e 40 -c 0 -i 0 -a 0 -x {2.0 3.0 -1 ------- null}
r -t 1.27716272150262 -s 0 -d 1 -p exp -e 40 -c 0 -i 0 -a 0 -x {2.0 3.0 0 ------- null}
+ -t 1.27716272150262 -s 1 -d 3 -p exp -e 40 -c 0 -i 0 -a 0 -x {2.0 3.0 0 ------- null}
- -t 1.27716272150262 -s 1 -d 3 -p exp -e 40 -c 0 -i 0 -a 0 -x {2.0 3.0 0 ------- null}
h -t 1.27716272150262 -s 1 -d 3 -p exp -e 40 -c 0 -i 0 -a 0 -x {2.0 3.0 -1 ------- null}
r -t 1.29536272150262 -s 1 -d 3 -p exp -e 40 -c 0 -i 0 -a 0 -x {2.0 3.0 0 ------- null}
+ -t 1.29536272150262 -s 3 -d 1 -p ack -e 40 -c 0 -i 1 -a 0 -x {3.0 2.0 0 ------- null}
- -t 1.29536272150262 -s 3 -d 1 -p ack -e 40 -c 0 -i 1 -a 0 -x {3.0 2.0 0 ------- null}
h -t 1.29536272150262 -s 3 -d 1 -p ack -e 40 -c 0 -i 1 -a 0 -x {3.0 2.0 -1 ------- null}
r -t 1.31356272150262 -s 3 -d 1 -p ack -e 40 -c 0 -i 1 -a 0 -x {3.0 2.0 0 ------- null}
+ -t 1.31356272150262 -s 1 -d 0 -p ack -e 40 -c 0 -i 1 -a 0 -x {3.0 2.0 0 ------- null}
- -t 1.31356272150262 -s 1 -d 0 -p ack -e 40 -c 0 -i 1 -a 0 -x {3.0 2.0 0 ------- null}
h -t 1.31356272150262 -s 1 -d 0 -p ack -e 40 -c 0 -i 1 -a 0 -x {3.0 2.0 -1 ------- null}
r -t 1.33176272150262 -s 1 -d 0 -p ack -e 40 -c 0 -i 1 -a 0 -x {3.0 2.0 0 ------- null}
+ -t 1.33176272150262 -s 0 -d 2 -p ack -e 40 -c 0 -i 1 -a 0 -x {3.0 2.0 0 ------- null}
- -t 1.33176272150262 -s 0 -d 2 -p ack -e 40 -c 0 -i 1 -a 0 -x {3.0 2.0 0 ------- null}
h -t 1.33176272150262 -s 0 -d 2 -p ack -e 40 -c 0 -i 1 -a 0 -x {3.0 2.0 -1 ------- null}
r -t 1.34996272150262 -s 0 -d 2 -p ack -e 40 -c 0 -i 1 -a 0 -x {3.0 2.0 0 ------- null}
+ -t 1.34996272150262 -s 2 -d 0 -p exp -e 1540 -c 0 -i 2 -a 0 -x {2.0 3.0 0 ------- null}
- -t 1.34996272150262 -s 2 -d 0 -p exp -e 1540 -c 0 -i 2 -a 0 -x {2.0 3.0 0 ------- null}
h -t 1.34996272150262 -s 2 -d 0 -p exp -e 1540 -c 0 -i 2 -a 0 -x {2.0 3.0 -1 ------- null}
+ -t 1.34996272150262 -s 2 -d 0 -p exp -e 1540 -c 0 -i 3 -a 0 -x {2.0 3.0 0 ------- null}
- -t 1.47316272150262 -s 2 -d 0 -p exp -e 1540 -c 0 -i 3 -a 0 -x {2.0 3.0 0 ------- null}
h -t 1.47316272150262 -s 2 -d 0 -p exp -e 1540 -c 0 -i 3 -a 0 -x {2.0 3.0 -1 ------- null}
r -t 1.48816272150262 -s 2 -d 0 -p exp -e 1540 -c 0 -i 2 -a 0 -x {2.0 3.0 0 ------- null}
+ -t 1.48816272150262 -s 0 -d 1 -p exp -e 1540 -c 0 -i 2 -a 0 -x {2.0 3.0 0 ------- null}
- -t 1.48816272150262 -s 0 -d 1 -p exp -e 1540 -c 0 -i 2 -a 0 -x {2.0 3.0 0 ------- null}
h -t 1.48816272150262 -s 0 -d 1 -p exp -e 1540 -c 0 -i 2 -a 0 -x {2.0 3.0 -1 ------- null}
r -t 1.61136272150262 -s 2 -d 0 -p exp -e 1540 -c 0 -i 3 -a 0 -x {2.0 3.0 0 ------- null}
+ -t 1.61136272150262 -s 0 -d 1 -p exp -e 1540 -c 0 -i 3 -a 0 -x {2.0 3.0 0 ------- null}
- -t 1.61136272150262 -s 0 -d 1 -p exp -e 1540 -c 0 -i 3 -a 0 -x {2.0 3.0 0 ------- null}
h -t 1.61136272150262 -s 0 -d 1 -p exp -e 1540 -c 0 -i 3 -a 0 -x {2.0 3.0 -1 ------- null}
r -t 1.62636272150262 -s 0 -d 1 -p exp -e 1540 -c 0 -i 2 -a 0 -x {2.0 3.0 0 ------- null}
+ -t 1.62636272150262 -s 1 -d 3 -p exp -e 1540 -c 0 -i 2 -a 0 -x {2.0 3.0 0 ------- null}
- -t 1.62636272150262 -s 1 -d 3 -p exp -e 1540 -c 0 -i 2 -a 0 -x {2.0 3.0 0 ------- null}
h -t 1.62636272150262 -s 1 -d 3 -p exp -e 1540 -c 0 -i 2 -a 0 -x {2.0 3.0 -1 ------- null}
+ -t 1.67996272150262 -s 2 -d 0 -p exp -e 1540 -c 0 -i 4 -a 0 -x {2.0 3.0 0 ---A--- null}
- -t 1.67996272150262 -s 2 -d 0 -p exp -e 1540 -c 0 -i 4 -a 0 -x {2.0 3.0 0 ---A--- null}
h -t 1.67996272150262 -s 2 -d 0 -p exp -e 1540 -c 0 -i 4 -a 0 -x {2.0 3.0 -1 ---A--- null}
r -t 1.74956272150262 -s 0 -d 1 -p exp -e 1540 -c 0 -i 3 -a 0 -x {2.0 3.0 0 ------- null}
+ -t 1.74956272150262 -s 1 -d 3 -p exp -e 1540 -c 0 -i 3 -a 0 -x {2.0 3.0 0 ------- null}
- -t 1.74956272150262 -s 1 -d 3 -p exp -e 1540 -c 0 -i 3 -a 0 -x {2.0 3.0 0 ------- null}
h -t 1.74956272150262 -s 1 -d 3 -p exp -e 1540 -c 0 -i 3 -a 0 -x {2.0 3.0 -1 ------- null}
r -t 1.76456272150262 -s 1 -d 3 -p exp -e 1540 -c 0 -i 2 -a 0 -x {2.0 3.0 0 ------- null}
+ -t 1.76456272150262 -s 3 -d 1 -p ack -e 40 -c 0 -i 5 -a 0 -x {3.0 2.0 1 ------- null}
- -t 1.76456272150262 -s 3 -d 1 -p ack -e 40 -c 0 -i 5 -a 0 -x {3.0 2.0 1 ------- null}
h -t 1.76456272150262 -s 3 -d 1 -p ack -e 40 -c 0 -i 5 -a 0 -x {3.0 2.0 -1 ------- null}
r -t 1.78276272150262 -s 3 -d 1 -p ack -e 40 -c 0 -i 5 -a 0 -x {3.0 2.0 1 ------- null}
+ -t 1.78276272150262 -s 1 -d 0 -p ack -e 40 -c 0 -i 5 -a 0 -x {3.0 2.0 1 ------- null}
- -t 1.78276272150262 -s 1 -d 0 -p ack -e 40 -c 0 -i 5 -a 0 -x {3.0 2.0 1 ------- null}
h -t 1.78276272150262 -s 1 -d 0 -p ack -e 40 -c 0 -i 5 -a 0 -x {3.0 2.0 -1 ------- null}
r -t 1.80096272150262 -s 1 -d 0 -p ack -e 40 -c 0 -i 5 -a 0 -x {3.0 2.0 1 ------- null}
+ -t 1.80096272150262 -s 0 -d 2 -p ack -e 40 -c 0 -i 5 -a 0 -x {3.0 2.0 1 ------- null}
- -t 1.80096272150262 -s 0 -d 2 -p ack -e 40 -c 0 -i 5 -a 0 -x {3.0 2.0 1 ------- null}
h -t 1.80096272150262 -s 0 -d 2 -p ack -e 40 -c 0 -i 5 -a 0 -x {3.0 2.0 -1 ------- null}
r -t 1.81816272150262 -s 2 -d 0 -p exp -e 1540 -c 0 -i 4 -a 0 -x {2.0 3.0 0 ---A--- null}
+ -t 1.81816272150262 -s 0 -d 1 -p exp -e 1540 -c 0 -i 4 -a 0 -x {2.0 3.0 0 ---A--- null}
- -t 1.81816272150262 -s 0 -d 1 -p exp -e 1540 -c 0 -i 4 -a 0 -x {2.0 3.0 0 ---A--- null}
h -t 1.81816272150262 -s 0 -d 1 -p exp -e 1540 -c 0 -i 4 -a 0 -x {2.0 3.0 -1 ---A--- null}
r -t 1.81916272150262 -s 0 -d 2 -p ack -e 40 -c 0 -i 5 -a 0 -x {3.0 2.0 1 ------- null}
+ -t 1.81916272150262 -s 2 -d 0 -p exp -e 1540 -c 0 -i 6 -a 0 -x {2.0 3.0 0 ------- null}
- -t 1.81916272150262 -s 2 -d 0 -p exp -e 1540 -c 0 -i 6 -a 0 -x {2.0 3.0 0 ------- null}
h -t 1.81916272150262 -s 2 -d 0 -p exp -e 1540 -c 0 -i 6 -a 0 -x {2.0 3.0 -1 ------- null}
+ -t 1.81916272150262 -s 2 -d 0 -p exp -e 1540 -c 0 -i 7 -a 0 -x {2.0 3.0 0 ------- null}
r -t 1.88776272150262 -s 1 -d 3 -p exp -e 1540 -c 0 -i 3 -a 0 -x {2.0 3.0 0 ------- null}
+ -t 1.88776272150262 -s 3 -d 1 -p ack -e 40 -c 0 -i 8 -a 0 -x {3.0 2.0 2 ------- null}
- -t 1.88776272150262 -s 3 -d 1 -p ack -e 40 -c 0 -i 8 -a 0 -x {3.0 2.0 2 ------- null}
h -t 1.88776272150262 -s 3 -d 1 -p ack -e 40 -c 0 -i 8 -a 0 -x {3.0 2.0 -1 ------- null}
r -t 1.90596272150262 -s 3 -d 1 -p ack -e 40 -c 0 -i 8 -a 0 -x {3.0 2.0 2 ------- null}
+ -t 1.90596272150262 -s 1 -d 0 -p ack -e 40 -c 0 -i 8 -a 0 -x {3.0 2.0 2 ------- null}
- -t 1.90596272150262 -s 1 -d 0 -p ack -e 40 -c 0 -i 8 -a 0 -x {3.0 2.0 2 ------- null}
h -t 1.90596272150262 -s 1 -d 0 -p ack -e 40 -c 0 -i 8 -a 0 -x {3.0 2.0 -1 ------- null}
r -t 1.92416272150262 -s 1 -d 0 -p ack -e 40 -c 0 -i 8 -a 0 -x {3.0 2.0 2 ------- null}
+ -t 1.92416272150262 -s 0 -d 2 -p ack -e 40 -c 0 -i 8 -a 0 -x {3.0 2.0 2 ------- null}
- -t 1.92416272150262 -s 0 -d 2 -p ack -e 40 -c 0 -i 8 -a 0 -x {3.0 2.0 2 ------- null}
h -t 1.92416272150262 -s 0 -d 2 -p ack -e 40 -c 0 -i 8 -a 0 -x {3.0 2.0 -1 ------- null}
- -t 1.94236272150262 -s 2 -d 0 -p exp -e 1540 -c 0 -i 7 -a 0 -x {2.0 3.0 0 ------- null}
h -t 1.94236272150262 -s 2 -d 0 -p exp -e 1540 -c 0 -i 7 -a 0 -x {2.0 3.0 -1 ------- null}
r -t 1.94236272150262 -s 0 -d 2 -p ack -e 40 -c 0 -i 8 -a 0 -x {3.0 2.0 2 ------- null}
+ -t 1.94236272150262 -s 2 -d 0 -p exp -e 1540 -c 0 -i 9 -a 0 -x {2.0 3.0 0 ------- null}
r -t 1.95636272150262 -s 0 -d 1 -p exp -e 1540 -c 0 -i 4 -a 0 -x {2.0 3.0 0 ---A--- null}
+ -t 1.95636272150262 -s 1 -d 3 -p exp -e 1540 -c 0 -i 4 -a 0 -x {2.0 3.0 0 ---A--- null}
- -t 1.95636272150262 -s 1 -d 3 -p exp -e 1540 -c 0 -i 4 -a 0 -x {2.0 3.0 0 ---A--- null}
h -t 1.95636272150262 -s 1 -d 3 -p exp -e 1540 -c 0 -i 4 -a 0 -x {2.0 3.0 -1 ---A--- null}
r -t 1.95736272150262 -s 2 -d 0 -p exp -e 1540 -c 0 -i 6 -a 0 -x {2.0 3.0 0 ------- null}
+ -t 1.95736272150262 -s 0 -d 1 -p exp -e 1540 -c 0 -i 6 -a 0 -x {2.0 3.0 0 ------- null}
- -t 1.95736272150262 -s 0 -d 1 -p exp -e 1540 -c 0 -i 6 -a 0 -x {2.0 3.0 0 ------- null}
h -t 1.95736272150262 -s 0 -d 1 -p exp -e 1540 -c 0 -i 6 -a 0 -x {2.0 3.0 -1 ------- null}
- -t 2.06556272150262 -s 2 -d 0 -p exp -e 1540 -c 0 -i 9 -a 0 -x {2.0 3.0 0 ------- null}
h -t 2.06556272150262 -s 2 -d 0 -p exp -e 1540 -c 0 -i 9 -a 0 -x {2.0 3.0 -1 ------- null}
r -t 2.08056272150262 -s 2 -d 0 -p exp -e 1540 -c 0 -i 7 -a 0 -x {2.0 3.0 0 ------- null}
+ -t 2.08056272150262 -s 0 -d 1 -p exp -e 1540 -c 0 -i 7 -a 0 -x {2.0 3.0 0 ------- null}
- -t 2.08056272150262 -s 0 -d 1 -p exp -e 1540 -c 0 -i 7 -a 0 -x {2.0 3.0 0 ------- null}
h -t 2.08056272150262 -s 0 -d 1 -p exp -e 1540 -c 0 -i 7 -a 0 -x {2.0 3.0 -1 ------- null}
r -t 2.09456272150262 -s 1 -d 3 -p exp -e 1540 -c 0 -i 4 -a 0 -x {2.0 3.0 0 ---A--- null}
+ -t 2.09456272150262 -s 3 -d 1 -p ack -e 40 -c 0 -i 10 -a 0 -x {3.0 2.0 2 ------- null}
- -t 2.09456272150262 -s 3 -d 1 -p ack -e 40 -c 0 -i 10 -a 0 -x {3.0 2.0 2 ------- null}
h -t 2.09456272150262 -s 3 -d 1 -p ack -e 40 -c 0 -i 10 -a 0 -x {3.0 2.0 -1 ------- null}
r -t 2.09556272150262 -s 0 -d 1 -p exp -e 1540 -c 0 -i 6 -a 0 -x {2.0 3.0 0 ------- null}
+ -t 2.09556272150262 -s 1 -d 3 -p exp -e 1540 -c 0 -i 6 -a 0 -x {2.0 3.0 0 ------- null}
- -t 2.09556272150262 -s 1 -d 3 -p exp -e 1540 -c 0 -i 6 -a 0 -x {2.0 3.0 0 ------- null}
h -t 2.09556272150262 -s 1 -d 3 -p exp -e 1540 -c 0 -i 6 -a 0 -x {2.0 3.0 -1 ------- null}
r -t 2.11276272150262 -s 3 -d 1 -p ack -e 40 -c 0 -i 10 -a 0 -x {3.0 2.0 2 ------- null}
+ -t 2.11276272150262 -s 1 -d 0 -p ack -e 40 -c 0 -i 10 -a 0 -x {3.0 2.0 2 ------- null}
- -t 2.11276272150262 -s 1 -d 0 -p ack -e 40 -c 0 -i 10 -a 0 -x {3.0 2.0 2 ------- null}
h -t 2.11276272150262 -s 1 -d 0 -p ack -e 40 -c 0 -i 10 -a 0 -x {3.0 2.0 -1 ------- null}
r -t 2.13096272150262 -s 1 -d 0 -p ack -e 40 -c 0 -i 10 -a 0 -x {3.0 2.0 2 ------- null}
+ -t 2.13096272150262 -s 0 -d 2 -p ack -e 40 -c 0 -i 10 -a 0 -x {3.0 2.0 2 ------- null}
- -t 2.13096272150262 -s 0 -d 2 -p ack -e 40 -c 0 -i 10 -a 0 -x {3.0 2.0 2 ------- null}
h -t 2.13096272150262 -s 0 -d 2 -p ack -e 40 -c 0 -i 10 -a 0 -x {3.0 2.0 -1 ------- null}
r -t 2.14916272150262 -s 0 -d 2 -p ack -e 40 -c 0 -i 10 -a 0 -x {3.0 2.0 2 ------- null}
+ -t 2.14916272150262 -s 2 -d 0 -p exp -e 1540 -c 0 -i 11 -a 0 -x {2.0 3.0 0 ------- null}
- -t 2.18876272150262 -s 2 -d 0 -p exp -e 1540 -c 0 -i 11 -a 0 -x {2.0 3.0 0 ------- null}
h -t 2.18876272150262 -s 2 -d 0 -p exp -e 1540 -c 0 -i 11 -a 0 -x {2.0 3.0 -1 ------- null}
r -t 2.20376272150262 -s 2 -d 0 -p exp -e 1540 -c 0 -i 9 -a 0 -x {2.0 3.0 0 ------- null}
+ -t 2.20376272150262 -s 0 -d 1 -p exp -e 1540 -c 0 -i 9 -a 0 -x {2.0 3.0 0 ------- null}
- -t 2.20376272150262 -s 0 -d 1 -p exp -e 1540 -c 0 -i 9 -a 0 -x {2.0 3.0 0 ------- null}
h -t 2.20376272150262 -s 0 -d 1 -p exp -e 1540 -c 0 -i 9 -a 0 -x {2.0 3.0 -1 ------- null}
r -t 2.21876272150262 -s 0 -d 1 -p exp -e 1540 -c 0 -i 7 -a 0 -x {2.0 3.0 0 ------- null}
+ -t 2.21876272150262 -s 1 -d 3 -p exp -e 1540 -c 0 -i 7 -a 0 -x {2.0 3.0 0 ------- null}
- -t 2.21876272150262 -s 1 -d 3 -p exp -e 1540 -c 0 -i 7 -a 0 -x {2.0 3.0 0 ------- null}
h -t 2.21876272150262 -s 1 -d 3 -p exp -e 1540 -c 0 -i 7 -a 0 -x {2.0 3.0 -1 ------- null}
r -t 2.23376272150262 -s 1 -d 3 -p exp -e 1540 -c 0 -i 6 -a 0 -x {2.0 3.0 0 ------- null}
+ -t 2.23376272150262 -s 3 -d 1 -p ack -e 40 -c 0 -i 12 -a 0 -x {3.0 2.0 2 ------- null}
- -t 2.23376272150262 -s 3 -d 1 -p ack -e 40 -c 0 -i 12 -a 0 -x {3.0 2.0 2 ------- null}
h -t 2.23376272150262 -s 3 -d 1 -p ack -e 40 -c 0 -i 12 -a 0 -x {3.0 2.0 -1 ------- null}
r -t 2.25196272150262 -s 3 -d 1 -p ack -e 40 -c 0 -i 12 -a 0 -x {3.0 2.0 2 ------- null}
+ -t 2.25196272150262 -s 1 -d 0 -p ack -e 40 -c 0 -i 12 -a 0 -x {3.0 2.0 2 ------- null}
- -t 2.25196272150262 -s 1 -d 0 -p ack -e 40 -c 0 -i 12 -a 0 -x {3.0 2.0 2 ------- null}
h -t 2.25196272150262 -s 1 -d 0 -p ack -e 40 -c 0 -i 12 -a 0 -x {3.0 2.0 -1 ------- null}
r -t 2.27016272150262 -s 1 -d 0 -p ack -e 40 -c 0 -i 12 -a 0 -x {3.0 2.0 2 ------- null}
+ -t 2.27016272150262 -s 0 -d 2 -p ack -e 40 -c 0 -i 12 -a 0 -x {3.0 2.0 2 ------- null}
- -t 2.27016272150262 -s 0 -d 2 -p ack -e 40 -c 0 -i 12 -a 0 -x {3.0 2.0 2 ------- null}
h -t 2.27016272150262 -s 0 -d 2 -p ack -e 40 -c 0 -i 12 -a 0 -x {3.0 2.0 -1 ------- null}
r -t 2.28836272150262 -s 0 -d 2 -p ack -e 40 -c 0 -i 12 -a 0 -x {3.0 2.0 2 ------- null}
+ -t 2.28836272150262 -s 2 -d 0 -p exp -e 1540 -c 0 -i 13 -a 0 -x {2.0 3.0 0 ------- null}
- -t 2.31196272150262 -s 2 -d 0 -p exp -e 1540 -c 0 -i 13 -a 0 -x {2.0 3.0 0 ------- null}
h -t 2.31196272150262 -s 2 -d 0 -p exp -e 1540 -c 0 -i 13 -a 0 -x {2.0 3.0 -1 ------- null}
r -t 2.32696272150262 -s 2 -d 0 -p exp -e 1540 -c 0 -i 11 -a 0 -x {2.0 3.0 0 ------- null}
+ -t 2.32696272150262 -s 0 -d 1 -p exp -e 1540 -c 0 -i 11 -a 0 -x {2.0 3.0 0 ------- null}
- -t 2.32696272150262 -s 0 -d 1 -p exp -e 1540 -c 0 -i 11 -a 0 -x {2.0 3.0 0 ------- null}
h -t 2.32696272150262 -s 0 -d 1 -p exp -e 1540 -c 0 -i 11 -a 0 -x {2.0 3.0 -1 ------- null}
r -t 2.34196272150262 -s 0 -d 1 -p exp -e 1540 -c 0 -i 9 -a 0 -x {2.0 3.0 0 ------- null}
+ -t 2.34196272150262 -s 1 -d 3 -p exp -e 1540 -c 0 -i 9 -a 0 -x {2.0 3.0 0 ------- null}
- -t 2.34196272150262 -s 1 -d 3 -p exp -e 1540 -c 0 -i 9 -a 0 -x {2.0 3.0 0 ------- null}
h -t 2.34196272150262 -s 1 -d 3 -p exp -e 1540 -c 0 -i 9 -a 0 -x {2.0 3.0 -1 ------- null}
r -t 2.35696272150262 -s 1 -d 3 -p exp -e 1540 -c 0 -i 7 -a 0 -x {2.0 3.0 0 ------- null}
+ -t 2.35696272150262 -s 3 -d 1 -p ack -e 40 -c 0 -i 14 -a 0 -x {3.0 2.0 3 ------- null}
- -t 2.35696272150262 -s 3 -d 1 -p ack -e 40 -c 0 -i 14 -a 0 -x {3.0 2.0 3 ------- null}
h -t 2.35696272150262 -s 3 -d 1 -p ack -e 40 -c 0 -i 14 -a 0 -x {3.0 2.0 -1 ------- null}
r -t 2.37516272150262 -s 3 -d 1 -p ack -e 40 -c 0 -i 14 -a 0 -x {3.0 2.0 3 ------- null}
+ -t 2.37516272150262 -s 1 -d 0 -p ack -e 40 -c 0 -i 14 -a 0 -x {3.0 2.0 3 ------- null}
- -t 2.37516272150262 -s 1 -d 0 -p ack -e 40 -c 0 -i 14 -a 0 -x {3.0 2.0 3 ------- null}
h -t 2.37516272150262 -s 1 -d 0 -p ack -e 40 -c 0 -i 14 -a 0 -x {3.0 2.0 -1 ------- null}
r -t 2.39336272150262 -s 1 -d 0 -p ack -e 40 -c 0 -i 14 -a 0 -x {3.0 2.0 3 ------- null}
+ -t 2.39336272150262 -s 0 -d 2 -p ack -e 40 -c 0 -i 14 -a 0 -x {3.0 2.0 3 ------- null}
- -t 2.39336272150262 -s 0 -d 2 -p ack -e 40 -c 0 -i 14 -a 0 -x {3.0 2.0 3 ------- null}
h -t 2.39336272150262 -s 0 -d 2 -p ack -e 40 -c 0 -i 14 -a 0 -x {3.0 2.0 -1 ------- null}
r -t 2.41156272150262 -s 0 -d 2 -p ack -e 40 -c 0 -i 14 -a 0 -x {3.0 2.0 3 ------- null}
r -t 2.45016272150262 -s 2 -d 0 -p exp -e 1540 -c 0 -i 13 -a 0 -x {2.0 3.0 0 ------- null}
+ -t 2.45016272150262 -s 0 -d 1 -p exp -e 1540 -c 0 -i 13 -a 0 -x {2.0 3.0 0 ------- null}
- -t 2.45016272150262 -s 0 -d 1 -p exp -e 1540 -c 0 -i 13 -a 0 -x {2.0 3.0 0 ------- null}
h -t 2.45016272150262 -s 0 -d 1 -p exp -e 1540 -c 0 -i 13 -a 0 -x {2.0 3.0 -1 ------- null}
r -t 2.46516272150262 -s 0 -d 1 -p exp -e 1540 -c 0 -i 11 -a 0 -x {2.0 3.0 0 ------- null}
+ -t 2.46516272150262 -s 1 -d 3 -p exp -e 1540 -c 0 -i 11 -a 0 -x {2.0 3.0 0 ------- null}
- -t 2.46516272150262 -s 1 -d 3 -p exp -e 1540 -c 0 -i 11 -a 0 -x {2.0 3.0 0 ------- null}
h -t 2.46516272150262 -s 1 -d 3 -p exp -e 1540 -c 0 -i 11 -a 0 -x {2.0 3.0 -1 ------- null}
r -t 2.48016272150262 -s 1 -d 3 -p exp -e 1540 -c 0 -i 9 -a 0 -x {2.0 3.0 0 ------- null}
+ -t 2.48016272150262 -s 3 -d 1 -p ack -e 40 -c 0 -i 15 -a 0 -x {3.0 2.0 4 ------- null}
- -t 2.48016272150262 -s 3 -d 1 -p ack -e 40 -c 0 -i 15 -a 0 -x {3.0 2.0 4 ------- null}
h -t 2.48016272150262 -s 3 -d 1 -p ack -e 40 -c 0 -i 15 -a 0 -x {3.0 2.0 -1 ------- null}
r -t 2.49836272150262 -s 3 -d 1 -p ack -e 40 -c 0 -i 15 -a 0 -x {3.0 2.0 4 ------- null}
+ -t 2.49836272150262 -s 1 -d 0 -p ack -e 40 -c 0 -i 15 -a 0 -x {3.0 2.0 4 ------- null}
- -t 2.49836272150262 -s 1 -d 0 -p ack -e 40 -c 0 -i 15 -a 0 -x {3.0 2.0 4 ------- null}
h -t 2.49836272150262 -s 1 -d 0 -p ack -e 40 -c 0 -i 15 -a 0 -x {3.0 2.0 -1 ------- null}
r -t 2.51656272150262 -s 1 -d 0 -p ack -e 40 -c 0 -i 15 -a 0 -x {3.0 2.0 4 ------- null}
+ -t 2.51656272150262 -s 0 -d 2 -p ack -e 40 -c 0 -i 15 -a 0 -x {3.0 2.0 4 ------- null}
- -t 2.51656272150262 -s 0 -d 2 -p ack -e 40 -c 0 -i 15 -a 0 -x {3.0 2.0 4 ------- null}
h -t 2.51656272150262 -s 0 -d 2 -p ack -e 40 -c 0 -i 15 -a 0 -x {3.0 2.0 -1 ------- null}
r -t 2.53476272150262 -s 0 -d 2 -p ack -e 40 -c 0 -i 15 -a 0 -x {3.0 2.0 4 ------- null}
+ -t 2.53476272150262 -s 2 -d 0 -p exp -e 1540 -c 0 -i 16 -a 0 -x {2.0 3.0 0 ------- null}
- -t 2.53476272150262 -s 2 -d 0 -p exp -e 1540 -c 0 -i 16 -a 0 -x {2.0 3.0 0 ------- null}
h -t 2.53476272150262 -s 2 -d 0 -p exp -e 1540 -c 0 -i 16 -a 0 -x {2.0 3.0 -1 ------- null}
r -t 2.58836272150262 -s 0 -d 1 -p exp -e 1540 -c 0 -i 13 -a 0 -x {2.0 3.0 0 ------- null}
+ -t 2.58836272150262 -s 1 -d 3 -p exp -e 1540 -c 0 -i 13 -a 0 -x {2.0 3.0 0 ------- null}
- -t 2.58836272150262 -s 1 -d 3 -p exp -e 1540 -c 0 -i 13 -a 0 -x {2.0 3.0 0 ------- null}
h -t 2.58836272150262 -s 1 -d 3 -p exp -e 1540 -c 0 -i 13 -a 0 -x {2.0 3.0 -1 ------- null}
r -t 2.60336272150262 -s 1 -d 3 -p exp -e 1540 -c 0 -i 11 -a 0 -x {2.0 3.0 0 ------- null}
+ -t 2.60336272150262 -s 3 -d 1 -p ack -e 40 -c 0 -i 17 -a 0 -x {3.0 2.0 5 ------- null}
- -t 2.60336272150262 -s 3 -d 1 -p ack -e 40 -c 0 -i 17 -a 0 -x {3.0 2.0 5 ------- null}
h -t 2.60336272150262 -s 3 -d 1 -p ack -e 40 -c 0 -i 17 -a 0 -x {3.0 2.0 -1 ------- null}
r -t 2.62156272150262 -s 3 -d 1 -p ack -e 40 -c 0 -i 17 -a 0 -x {3.0 2.0 5 ------- null}
+ -t 2.62156272150262 -s 1 -d 0 -p ack -e 40 -c 0 -i 17 -a 0 -x {3.0 2.0 5 ------- null}
- -t 2.62156272150262 -s 1 -d 0 -p ack -e 40 -c 0 -i 17 -a 0 -x {3.0 2.0 5 ------- null}
h -t 2.62156272150262 -s 1 -d 0 -p ack -e 40 -c 0 -i 17 -a 0 -x {3.0 2.0 -1 ------- null}
r -t 2.63976272150262 -s 1 -d 0 -p ack -e 40 -c 0 -i 17 -a 0 -x {3.0 2.0 5 ------- null}
+ -t 2.63976272150262 -s 0 -d 2 -p ack -e 40 -c 0 -i 17 -a 0 -x {3.0 2.0 5 ------- null}
- -t 2.63976272150262 -s 0 -d 2 -p ack -e 40 -c 0 -i 17 -a 0 -x {3.0 2.0 5 ------- null}
h -t 2.63976272150262 -s 0 -d 2 -p ack -e 40 -c 0 -i 17 -a 0 -x {3.0 2.0 -1 ------- null}
r -t 2.65796272150262 -s 0 -d 2 -p ack -e 40 -c 0 -i 17 -a 0 -x {3.0 2.0 5 ------- null}
+ -t 2.65796272150262 -s 2 -d 0 -p exp -e 1540 -c 0 -i 18 -a 0 -x {2.0 3.0 0 ------- null}
- -t 2.65796272150262 -s 2 -d 0 -p exp -e 1540 -c 0 -i 18 -a 0 -x {2.0 3.0 0 ------- null}
h -t 2.65796272150262 -s 2 -d 0 -p exp -e 1540 -c 0 -i 18 -a 0 -x {2.0 3.0 -1 ------- null}
r -t 2.67296272150262 -s 2 -d 0 -p exp -e 1540 -c 0 -i 16 -a 0 -x {2.0 3.0 0 ------- null}
+ -t 2.67296272150262 -s 0 -d 1 -p exp -e 1540 -c 0 -i 16 -a 0 -x {2.0 3.0 0 ------- null}
- -t 2.67296272150262 -s 0 -d 1 -p exp -e 1540 -c 0 -i 16 -a 0 -x {2.0 3.0 0 ------- null}
h -t 2.67296272150262 -s 0 -d 1 -p exp -e 1540 -c 0 -i 16 -a 0 -x {2.0 3.0 -1 ------- null}
r -t 2.72656272150262 -s 1 -d 3 -p exp -e 1540 -c 0 -i 13 -a 0 -x {2.0 3.0 0 ------- null}
+ -t 2.72656272150262 -s 3 -d 1 -p ack -e 40 -c 0 -i 19 -a 0 -x {3.0 2.0 6 ------- null}
- -t 2.72656272150262 -s 3 -d 1 -p ack -e 40 -c 0 -i 19 -a 0 -x {3.0 2.0 6 ------- null}
h -t 2.72656272150262 -s 3 -d 1 -p ack -e 40 -c 0 -i 19 -a 0 -x {3.0 2.0 -1 ------- null}
r -t 2.74476272150262 -s 3 -d 1 -p ack -e 40 -c 0 -i 19 -a 0 -x {3.0 2.0 6 ------- null}
+ -t 2.74476272150262 -s 1 -d 0 -p ack -e 40 -c 0 -i 19 -a 0 -x {3.0 2.0 6 ------- null}
- -t 2.74476272150262 -s 1 -d 0 -p ack -e 40 -c 0 -i 19 -a 0 -x {3.0 2.0 6 ------- null}
h -t 2.74476272150262 -s 1 -d 0 -p ack -e 40 -c 0 -i 19 -a 0 -x {3.0 2.0 -1 ------- null}
r -t 2.76296272150262 -s 1 -d 0 -p ack -e 40 -c 0 -i 19 -a 0 -x {3.0 2.0 6 ------- null}
+ -t 2.76296272150262 -s 0 -d 2 -p ack -e 40 -c 0 -i 19 -a 0 -x {3.0 2.0 6 ------- null}
- -t 2.76296272150262 -s 0 -d 2 -p ack -e 40 -c 0 -i 19 -a 0 -x {3.0 2.0 6 ------- null}
h -t 2.76296272150262 -s 0 -d 2 -p ack -e 40 -c 0 -i 19 -a 0 -x {3.0 2.0 -1 ------- null}
r -t 2.78116272150262 -s 0 -d 2 -p ack -e 40 -c 0 -i 19 -a 0 -x {3.0 2.0 6 ------- null}
+ -t 2.78116272150262 -s 2 -d 0 -p exp -e 1540 -c 0 -i 20 -a 0 -x {2.0 3.0 0 ------- null}
- -t 2.78116272150262 -s 2 -d 0 -p exp -e 1540 -c 0 -i 20 -a 0 -x {2.0 3.0 0 ------- null}
h -t 2.78116272150262 -s 2 -d 0 -p exp -e 1540 -c 0 -i 20 -a 0 -x {2.0 3.0 -1 ------- null}
r -t 2.79616272150262 -s 2 -d 0 -p exp -e 1540 -c 0 -i 18 -a 0 -x {2.0 3.0 0 ------- null}
+ -t 2.79616272150262 -s 0 -d 1 -p exp -e 1540 -c 0 -i 18 -a 0 -x {2.0 3.0 0 ------- null}
- -t 2.79616272150262 -s 0 -d 1 -p exp -e 1540 -c 0 -i 18 -a 0 -x {2.0 3.0 0 ------- null}
h -t 2.79616272150262 -s 0 -d 1 -p exp -e 1540 -c 0 -i 18 -a 0 -x {2.0 3.0 -1 ------- null}
r -t 2.81116272150262 -s 0 -d 1 -p exp -e 1540 -c 0 -i 16 -a 0 -x {2.0 3.0 0 ------- null}
+ -t 2.81116272150262 -s 1 -d 3 -p exp -e 1540 -c 0 -i 16 -a 0 -x {2.0 3.0 0 ------- null}
- -t 2.81116272150262 -s 1 -d 3 -p exp -e 1540 -c 0 -i 16 -a 0 -x {2.0 3.0 0 ------- null}
h -t 2.81116272150262 -s 1 -d 3 -p exp -e 1540 -c 0 -i 16 -a 0 -x {2.0 3.0 -1 ------- null}
r -t 2.91936272150262 -s 2 -d 0 -p exp -e 1540 -c 0 -i 20 -a 0 -x {2.0 3.0 0 ------- null}
+ -t 2.91936272150262 -s 0 -d 1 -p exp -e 1540 -c 0 -i 20 -a 0 -x {2.0 3.0 0 ------- null}
- -t 2.91936272150262 -s 0 -d 1 -p exp -e 1540 -c 0 -i 20 -a 0 -x {2.0 3.0 0 ------- null}
h -t 2.91936272150262 -s 0 -d 1 -p exp -e 1540 -c 0 -i 20 -a 0 -x {2.0 3.0 -1 ------- null}
r -t 2.93436272150262 -s 0 -d 1 -p exp -e 1540 -c 0 -i 18 -a 0 -x {2.0 3.0 0 ------- null}
+ -t 2.93436272150262 -s 1 -d 3 -p exp -e 1540 -c 0 -i 18 -a 0 -x {2.0 3.0 0 ------- null}
- -t 2.93436272150262 -s 1 -d 3 -p exp -e 1540 -c 0 -i 18 -a 0 -x {2.0 3.0 0 ------- null}
h -t 2.93436272150262 -s 1 -d 3 -p exp -e 1540 -c 0 -i 18 -a 0 -x {2.0 3.0 -1 ------- null}
r -t 2.94936272150262 -s 1 -d 3 -p exp -e 1540 -c 0 -i 16 -a 0 -x {2.0 3.0 0 ------- null}
+ -t 2.94936272150262 -s 3 -d 1 -p ack -e 40 -c 0 -i 21 -a 0 -x {3.0 2.0 7 ------- null}
- -t 2.94936272150262 -s 3 -d 1 -p ack -e 40 -c 0 -i 21 -a 0 -x {3.0 2.0 7 ------- null}
h -t 2.94936272150262 -s 3 -d 1 -p ack -e 40 -c 0 -i 21 -a 0 -x {3.0 2.0 -1 ------- null}
r -t 2.96756272150262 -s 3 -d 1 -p ack -e 40 -c 0 -i 21 -a 0 -x {3.0 2.0 7 ------- null}
+ -t 2.96756272150262 -s 1 -d 0 -p ack -e 40 -c 0 -i 21 -a 0 -x {3.0 2.0 7 ------- null}
- -t 2.96756272150262 -s 1 -d 0 -p ack -e 40 -c 0 -i 21 -a 0 -x {3.0 2.0 7 ------- null}
h -t 2.96756272150262 -s 1 -d 0 -p ack -e 40 -c 0 -i 21 -a 0 -x {3.0 2.0 -1 ------- null}
r -t 2.98576272150262 -s 1 -d 0 -p ack -e 40 -c 0 -i 21 -a 0 -x {3.0 2.0 7 ------- null}
+ -t 2.98576272150262 -s 0 -d 2 -p ack -e 40 -c 0 -i 21 -a 0 -x {3.0 2.0 7 ------- null}
- -t 2.98576272150262 -s 0 -d 2 -p ack -e 40 -c 0 -i 21 -a 0 -x {3.0 2.0 7 ------- null}
h -t 2.98576272150262 -s 0 -d 2 -p ack -e 40 -c 0 -i 21 -a 0 -x {3.0 2.0 -1 ------- null}
r -t 3.00396272150262 -s 0 -d 2 -p ack -e 40 -c 0 -i 21 -a 0 -x {3.0 2.0 7 ------- null}
+ -t 3.00396272150262 -s 2 -d 0 -p exp -e 1540 -c 0 -i 22 -a 0 -x {2.0 3.0 0 ------- null}
- -t 3.00396272150262 -s 2 -d 0 -p exp -e 1540 -c 0 -i 22 -a 0 -x {2.0 3.0 0 ------- null}
h -t 3.00396272150262 -s 2 -d 0 -p exp -e 1540 -c 0 -i 22 -a 0 -x {2.0 3.0 -1 ------- null}
+ -t 3.00396272150262 -s 2 -d 0 -p exp -e 1540 -c 0 -i 23 -a 0 -x {2.0 3.0 0 ------- null}
r -t 3.05756272150262 -s 0 -d 1 -p exp -e 1540 -c 0 -i 20 -a 0 -x {2.0 3.0 0 ------- null}
+ -t 3.05756272150262 -s 1 -d 3 -p exp -e 1540 -c 0 -i 20 -a 0 -x {2.0 3.0 0 ------- null}
- -t 3.05756272150262 -s 1 -d 3 -p exp -e 1540 -c 0 -i 20 -a 0 -x {2.0 3.0 0 ------- null}
h -t 3.05756272150262 -s 1 -d 3 -p exp -e 1540 -c 0 -i 20 -a 0 -x {2.0 3.0 -1 ------- null}
r -t 3.07256272150262 -s 1 -d 3 -p exp -e 1540 -c 0 -i 18 -a 0 -x {2.0 3.0 0 ------- null}
+ -t 3.07256272150262 -s 3 -d 1 -p ack -e 40 -c 0 -i 24 -a 0 -x {3.0 2.0 8 ------- null}
- -t 3.07256272150262 -s 3 -d 1 -p ack -e 40 -c 0 -i 24 -a 0 -x {3.0 2.0 8 ------- null}
h -t 3.07256272150262 -s 3 -d 1 -p ack -e 40 -c 0 -i 24 -a 0 -x {3.0 2.0 -1 ------- null}
r -t 3.09076272150262 -s 3 -d 1 -p ack -e 40 -c 0 -i 24 -a 0 -x {3.0 2.0 8 ------- null}
+ -t 3.09076272150262 -s 1 -d 0 -p ack -e 40 -c 0 -i 24 -a 0 -x {3.0 2.0 8 ------- null}
- -t 3.09076272150262 -s 1 -d 0 -p ack -e 40 -c 0 -i 24 -a 0 -x {3.0 2.0 8 ------- null}
h -t 3.09076272150262 -s 1 -d 0 -p ack -e 40 -c 0 -i 24 -a 0 -x {3.0 2.0 -1 ------- null}
r -t 3.10896272150262 -s 1 -d 0 -p ack -e 40 -c 0 -i 24 -a 0 -x {3.0 2.0 8 ------- null}
+ -t 3.10896272150262 -s 0 -d 2 -p ack -e 40 -c 0 -i 24 -a 0 -x {3.0 2.0 8 ------- null}
- -t 3.10896272150262 -s 0 -d 2 -p ack -e 40 -c 0 -i 24 -a 0 -x {3.0 2.0 8 ------- null}
h -t 3.10896272150262 -s 0 -d 2 -p ack -e 40 -c 0 -i 24 -a 0 -x {3.0 2.0 -1 ------- null}
- -t 3.12716272150262 -s 2 -d 0 -p exp -e 1540 -c 0 -i 23 -a 0 -x {2.0 3.0 0 ------- null}
h -t 3.12716272150262 -s 2 -d 0 -p exp -e 1540 -c 0 -i 23 -a 0 -x {2.0 3.0 -1 ------- null}
r -t 3.12716272150262 -s 0 -d 2 -p ack -e 40 -c 0 -i 24 -a 0 -x {3.0 2.0 8 ------- null}
+ -t 3.12716272150262 -s 2 -d 0 -p exp -e 1540 -c 0 -i 25 -a 0 -x {2.0 3.0 0 ------- null}
r -t 3.14216272150262 -s 2 -d 0 -p exp -e 1540 -c 0 -i 22 -a 0 -x {2.0 3.0 0 ------- null}
+ -t 3.14216272150262 -s 0 -d 1 -p exp -e 1540 -c 0 -i 22 -a 0 -x {2.0 3.0 0 ------- null}
- -t 3.14216272150262 -s 0 -d 1 -p exp -e 1540 -c 0 -i 22 -a 0 -x {2.0 3.0 0 ------- null}
h -t 3.14216272150262 -s 0 -d 1 -p exp -e 1540 -c 0 -i 22 -a 0 -x {2.0 3.0 -1 ------- null}
r -t 3.19576272150262 -s 1 -d 3 -p exp -e 1540 -c 0 -i 20 -a 0 -x {2.0 3.0 0 ------- null}
+ -t 3.19576272150262 -s 3 -d 1 -p ack -e 40 -c 0 -i 26 -a 0 -x {3.0 2.0 9 ------- null}
- -t 3.19576272150262 -s 3 -d 1 -p ack -e 40 -c 0 -i 26 -a 0 -x {3.0 2.0 9 ------- null}
h -t 3.19576272150262 -s 3 -d 1 -p ack -e 40 -c 0 -i 26 -a 0 -x {3.0 2.0 -1 ------- null}
r -t 3.21396272150262 -s 3 -d 1 -p ack -e 40 -c 0 -i 26 -a 0 -x {3.0 2.0 9 ------- null}
+ -t 3.21396272150262 -s 1 -d 0 -p ack -e 40 -c 0 -i 26 -a 0 -x {3.0 2.0 9 ------- null}
- -t 3.21396272150262 -s 1 -d 0 -p ack -e 40 -c 0 -i 26 -a 0 -x {3.0 2.0 9 ------- null}
h -t 3.21396272150262 -s 1 -d 0 -p ack -e 40 -c 0 -i 26 -a 0 -x {3.0 2.0 -1 ------- null}
r -t 3.23216272150262 -s 1 -d 0 -p ack -e 40 -c 0 -i 26 -a 0 -x {3.0 2.0 9 ------- null}
+ -t 3.23216272150262 -s 0 -d 2 -p ack -e 40 -c 0 -i 26 -a 0 -x {3.0 2.0 9 ------- null}
- -t 3.23216272150262 -s 0 -d 2 -p ack -e 40 -c 0 -i 26 -a 0 -x {3.0 2.0 9 ------- null}
h -t 3.23216272150262 -s 0 -d 2 -p ack -e 40 -c 0 -i 26 -a 0 -x {3.0 2.0 -1 ------- null}
- -t 3.25036272150262 -s 2 -d 0 -p exp -e 1540 -c 0 -i 25 -a 0 -x {2.0 3.0 0 ------- null}
h -t 3.25036272150262 -s 2 -d 0 -p exp -e 1540 -c 0 -i 25 -a 0 -x {2.0 3.0 -1 ------- null}
r -t 3.25036272150262 -s 0 -d 2 -p ack -e 40 -c 0 -i 26 -a 0 -x {3.0 2.0 9 ------- null}
+ -t 3.25036272150262 -s 2 -d 0 -p exp -e 1540 -c 0 -i 27 -a 0 -x {2.0 3.0 0 ------- null}
r -t 3.26536272150262 -s 2 -d 0 -p exp -e 1540 -c 0 -i 23 -a 0 -x {2.0 3.0 0 ------- null}
+ -t 3.26536272150262 -s 0 -d 1 -p exp -e 1540 -c 0 -i 23 -a 0 -x {2.0 3.0 0 ------- null}
- -t 3.26536272150262 -s 0 -d 1 -p exp -e 1540 -c 0 -i 23 -a 0 -x {2.0 3.0 0 ------- null}
h -t 3.26536272150262 -s 0 -d 1 -p exp -e 1540 -c 0 -i 23 -a 0 -x {2.0 3.0 -1 ------- null}
r -t 3.28036272150262 -s 0 -d 1 -p exp -e 1540 -c 0 -i 22 -a 0 -x {2.0 3.0 0 ------- null}
+ -t 3.28036272150262 -s 1 -d 3 -p exp -e 1540 -c 0 -i 22 -a 0 -x {2.0 3.0 0 ------- null}
- -t 3.28036272150262 -s 1 -d 3 -p exp -e 1540 -c 0 -i 22 -a 0 -x {2.0 3.0 0 ------- null}
h -t 3.28036272150262 -s 1 -d 3 -p exp -e 1540 -c 0 -i 22 -a 0 -x {2.0 3.0 -1 ------- null}
- -t 3.37356272150262 -s 2 -d 0 -p exp -e 1540 -c 0 -i 27 -a 0 -x {2.0 3.0 0 ------- null}
h -t 3.37356272150262 -s 2 -d 0 -p exp -e 1540 -c 0 -i 27 -a 0 -x {2.0 3.0 -1 ------- null}
r -t 3.38856272150262 -s 2 -d 0 -p exp -e 1540 -c 0 -i 25 -a 0 -x {2.0 3.0 0 ------- null}
+ -t 3.38856272150262 -s 0 -d 1 -p exp -e 1540 -c 0 -i 25 -a 0 -x {2.0 3.0 0 ------- null}
- -t 3.38856272150262 -s 0 -d 1 -p exp -e 1540 -c 0 -i 25 -a 0 -x {2.0 3.0 0 ------- null}
h -t 3.38856272150262 -s 0 -d 1 -p exp -e 1540 -c 0 -i 25 -a 0 -x {2.0 3.0 -1 ------- null}
r -t 3.40356272150262 -s 0 -d 1 -p exp -e 1540 -c 0 -i 23 -a 0 -x {2.0 3.0 0 ------- null}
+ -t 3.40356272150262 -s 1 -d 3 -p exp -e 1540 -c 0 -i 23 -a 0 -x {2.0 3.0 0 ------- null}
- -t 3.40356272150262 -s 1 -d 3 -p exp -e 1540 -c 0 -i 23 -a 0 -x {2.0 3.0 0 ------- null}
h -t 3.40356272150262 -s 1 -d 3 -p exp -e 1540 -c 0 -i 23 -a 0 -x {2.0 3.0 -1 ------- null}
r -t 3.41856272150262 -s 1 -d 3 -p exp -e 1540 -c 0 -i 22 -a 0 -x {2.0 3.0 0 ------- null}
+ -t 3.41856272150262 -s 3 -d 1 -p ack -e 40 -c 0 -i 28 -a 0 -x {3.0 2.0 10 ------- null}
- -t 3.41856272150262 -s 3 -d 1 -p ack -e 40 -c 0 -i 28 -a 0 -x {3.0 2.0 10 ------- null}
h -t 3.41856272150262 -s 3 -d 1 -p ack -e 40 -c 0 -i 28 -a 0 -x {3.0 2.0 -1 ------- null}
r -t 3.43676272150262 -s 3 -d 1 -p ack -e 40 -c 0 -i 28 -a 0 -x {3.0 2.0 10 ------- null}
+ -t 3.43676272150262 -s 1 -d 0 -p ack -e 40 -c 0 -i 28 -a 0 -x {3.0 2.0 10 ------- null}
- -t 3.43676272150262 -s 1 -d 0 -p ack -e 40 -c 0 -i 28 -a 0 -x {3.0 2.0 10 ------- null}
h -t 3.43676272150262 -s 1 -d 0 -p ack -e 40 -c 0 -i 28 -a 0 -x {3.0 2.0 -1 ------- null}