V -t * -v 1.0a5 -a 0
A -t * -n 1 -p 0 -o 0x7fffffff -c 30 -a 1
A -t * -h 1 -m 1073741823 -s 0
n -t * -a 4 -s 4 -S UP -v circle -c black -i black
n -t * -a 0 -s 0 -S UP -v circle -c black -i black
n -t * -a 5 -s 5 -S UP -v circle -c black -i black
n -t * -a 1 -s 1 -S UP -v circle -c black -i black
n -t * -a 2 -s 2 -S UP -v circle -c black -i black
n -t * -a 3 -s 3 -S UP -v circle -c black -i black
l -t * -s 0 -d 1 -S UP -r 100000 -D 0.014999999999999999 -c black
l -t * -s 2 -d 0 -S UP -r 100000 -D 0.014999999999999999 -c black
l -t * -s 3 -d 1 -S UP -r 100000 -D 0.014999999999999999 -c black
l -t * -s 4 -d 0 -S UP -r 100000 -D 0.014999999999999999 -c black
l -t * -s 5 -d 1 -S UP -r 100000 -D 0.014999999999999999 -c black
+ -t 0.138349896029389 -s 2 -d 0 -p exp -e 40 -c 0 -i 0 -a 0 -x {2.0 3.0 0 ------- null}
- -t 0.138349896029389 -s 2 -d 0 -p exp -e 40 -c 0 -i 0 -a 0 -x {2.0 3.0 0 ------- null}
h -t 0.138349896029389 -s 2 -d 0 -p exp -e 40 -c 0 -i 0 -a 0 -x {2.0 3.0 -1 ------- null}
r -t 0.156549896029389 -s 2 -d 0 -p exp -e 40 -c 0 -i 0 -a 0 -x {2.0 3.0 0 ------- null}
+ -t 0.156549896029389 -s 0 -d 1 -p exp -e 40 -c 0 -i 0 -a 0 -x {2.0 3.0 0 ------- null}
- -t 0.156549896029389 -s 0 -d 1 -p exp -e 40 -c 0 -i 0 -a 0 -x {2.0 3.0 0 ------- null}
h -t 0.156549896029389 -s 0 -d 1 -p exp -e 40 -c 0 -i 0 -a 0 -x {2.0 3.0 -1 ------- null}
r -t 0.174749896029389 -s 0 -d 1 -p exp -e 40 -c 0 -i 0 -a 0 -x {2.0 3.0 0 ------- null}
+ -t 0.174749896029389 -s 1 -d 3 -p exp -e 40 -c 0 -i 0 -a 0 -x {2.0 3.0 0 ------- null}
- -t 0.174749896029389 -s 1 -d 3 -p exp -e 40 -c 0 -i 0 -a 0 -x {2.0 3.0 0 ------- null}
h -t 0.174749896029389 -s 1 -d 3 -p exp -e 40 -c 0 -i 0 -a 0 -x {2.0 3.0 -1 ------- null}
r -t 0.192949896029389 -s 1 -d 3 -p exp -e 40 -c 0 -i 0 -a 0 -x {2.0 3.0 0 ------- null}
+ -t 0.192949896029389 -s 3 -d 1 -p ack -e 40 -c 0 -i 1 -a 0 -x {3.0 2.0 0 ------- null}
- -t 0.192949896029389 -s 3 -d 1 -p ack -e 40 -c 0 -i 1 -a 0 -x {3.0 2.0 0 ------- null}
h -t 0.192949896029389 -s 3 -d 1 -p ack -e 40 -c 0 -i 1 -a 0 -x {3.0 2.0 -1 ------- null}
r -t 0.211149896029389 -s 3 -d 1 -p ack -e 40 -c 0 -i 1 -a 0 -x {3.0 2.0 0 ------- null}
+ -t 0.211149896029389 -s 1 -d 0 -p ack -e 40 -c 0 -i 1 -a 0 -x {3.0 2.0 0 ------- null}
- -t 0.211149896029389 -s 1 -d 0 -p ack -e 40 -c 0 -i 1 -a 0 -x {3.0 2.0 0 ------- null}
h -t 0.211149896029389 -s 1 -d 0 -p ack -e 40 -c 0 -i 1 -a 0 -x {3.0 2.0 -1 ------- null}
r -t 0.229349896029389 -s 1 -d 0 -p ack -e 40 -c 0 -i 1 -a 0 -x {3.0 2.0 0 ------- null}
+ -t 0.229349896029389 -s 0 -d 2 -p ack -e 40 -c 0 -i 1 -a 0 -x {3.0 2.0 0 ------- null}
- -t 0.229349896029389 -s 0 -d 2 -p ack -e 40 -c 0 -i 1 -a 0 -x {3.0 2.0 0 ------- null}
h -t 0.229349896029389 -s 0 -d 2 -p ack -e 40 -c 0 -i 1 -a 0 -x {3.0 2.0 -1 ------- null}
r -t 0.247549896029389 -s 0 -d 2 -p ack -e 40 -c 0 -i 1 -a 0 -x {3.0 2.0 0 ------- null}
+ -t 0.247549896029389 -s 2 -d 0 -p exp -e 1540 -c 0 -i 2 -a 0 -x {2.0 3.0 0 ------- null}
- -t 0.247549896029389 -s 2 -d 0 -p exp -e 1540 -c 0 -i 2 -a 0 -x {2.0 3.0 0 ------- null}
h -t 0.247549896029389 -s 2 -d 0 -p exp -e 1540 -c 0 -i 2 -a 0 -x {2.0 3.0 -1 ------- null}
+ -t 0.247549896029389 -s 2 -d 0 -p exp -e 1540 -c 0 -i 3 -a 0 -x {2.0 3.0 0 ------- null}
- -t 0.370749896029389 -s 2 -d 0 -p exp -e 1540 -c 0 -i 3 -a 0 -x {2.0 3.0 0 ------- null}
h -t 0.370749896029389 -s 2 -d 0 -p exp -e 1540 -c 0 -i 3 -a 0 -x {2.0 3.0 -1 ------- null}
r -t 0.385749896029389 -s 2 -d 0 -p exp -e 1540 -c 0 -i 2 -a 0 -x {2.0 3.0 0 ------- null}
+ -t 0.385749896029389 -s 0 -d 1 -p exp -e 1540 -c 0 -i 2 -a 0 -x {2.0 3.0 0 ------- null}
- -t 0.385749896029389 -s 0 -d 1 -p exp -e 1540 -c 0 -i 2 -a 0 -x {2.0 3.0 0 ------- null}
h -t 0.385749896029389 -s 0 -d 1 -p exp -e 1540 -c 0 -i 2 -a 0 -x {2.0 3.0 -1 ------- null}
r -t 0.508949896029389 -s 2 -d 0 -p exp -e 1540 -c 0 -i 3 -a 0 -x {2.0 3.0 0 ------- null}
+ -t 0.508949896029389 -s 0 -d 1 -p exp -e 1540 -c 0 -i 3 -a 0 -x {2.0 3.0 0 ------- null}
- -t 0.508949896029389 -s 0 -d 1 -p exp -e 1540 -c 0 -i 3 -a 0 -x {2.0 3.0 0 ------- null}
h -t 0.508949896029389 -s 0 -d 1 -p exp -e 1540 -c 0 -i 3 -a 0 -x {2.0 3.0 -1 ------- null}
r -t 0.523949896029389 -s 0 -d 1 -p exp -e 1540 -c 0 -i 2 -a 0 -x {2.0 3.0 0 ------- null}
+ -t 0.523949896029389 -s 1 -d 3 -p exp -e 1540 -c 0 -i 2 -a 0 -x {2.0 3.0 0 ------- null}
- -t 0.523949896029389 -s 1 -d 3 -p exp -e 1540 -c 0 -i 2 -a 0 -x {2.0 3.0 0 ------- null}
h -t 0.523949896029389 -s 1 -d 3 -p exp -e 1540 -c 0 -i 2 -a 0 -x {2.0 3.0 -1 ------- null}
+ -t 0.577549896029389 -s 2 -d 0 -p exp -e 1540 -c 0 -i 4 -a 0 -x {2.0 3.0 0 ---A--- null}
- -t 0.577549896029389 -s 2 -d 0 -p exp -e 1540 -c 0 -i 4 -a 0 -x {2.0 3.0 0 ---A--- null}
h -t 0.577549896029389 -s 2 -d 0 -p exp -e 1540 -c 0 -i 4 -a 0 -x {2.0 3.0 -1 ---A--- null}
r -t 0.647149896029389 -s 0 -d 1 -p exp -e 1540 -c 0 -i 3 -a 0 -x {2.0 3.0 0 ------- null}
+ -t 0.647149896029389 -s 1 -d 3 -p exp -e 1540 -c 0 -i 3 -a 0 -x {2.0 3.0 0 ------- null}
- -t 0.647149896029389 -s 1 -d 3 -p exp -e 1540 -c 0 -i 3 -a 0 -x {2.0 3.0 0 ------- null}
h -t 0.647149896029389 -s 1 -d 3 -p exp -e 1540 -c 0 -i 3 -a 0 -x {2.0 3.0 -1 ------- null}
r -t 0.662149896029389 -s 1 -d 3 -p exp -e 1540 -c 0 -i 2 -a 0 -x {2.0 3.0 0 ------- null}
+ -t 0.662149896029389 -s 3 -d 1 -p ack -e 40 -c 0 -i 5 -a 0 -x {3.0 2.0 1 ------- null}
- -t 0.662149896029389 -s 3 -d 1 -p ack -e 40 -c 0 -i 5 -a 0 -x {3.0 2.0 1 ------- null}
h -t 0.662149896029389 -s 3 -d 1 -p ack -e 40 -c 0 -i 5 -a 0 -x {3.0 2.0 -1 ------- null}
r -t 0.680349896029389 -s 3 -d 1 -p ack -e 40 -c 0 -i 5 -a 0 -x {3.0 2.0 1 ------- null}
+ -t 0.680349896029389 -s 1 -d 0 -p ack -e 40 -c 0 -i 5 -a 0 -x {3.0 2.0 1 ------- null}
- -t 0.680349896029389 -s 1 -d 0 -p ack -e 40 -c 0 -i 5 -a 0 -x {3.0 2.0 1 ------- null}
h -t 0.680349896029389 -s 1 -d 0 -p ack -e 40 -c 0 -i 5 -a 0 -x {3.0 2.0 -1 ------- null}
r -t 0.698549896029389 -s 1 -d 0 -p ack -e 40 -c 0 -i 5 -a 0 -x {3.0 2.0 1 ------- null}
+ -t 0.698549896029389 -s 0 -d 2 -p ack -e 40 -c 0 -i 5 -a 0 -x {3.0 2.0 1 ------- null}
- -t 0.698549896029389 -s 0 -d 2 -p ack -e 40 -c 0 -i 5 -a 0 -x {3.0 2.0 1 ------- null}
h -t 0.698549896029389 -s 0 -d 2 -p ack -e 40 -c 0 -i 5 -a 0 -x {3.0 2.0 -1 ------- null}
r -t 0.715749896029389 -s 2 -d 0 -p exp -e 1540 -c 0 -i 4 -a 0 -x {2.0 3.0 0 ---A--- null}
+ -t 0.715749896029389 -s 0 -d 1 -p exp -e 1540 -c 0 -i 4 -a 0 -x {2.0 3.0 0 ---A--- null}
- -t 0.715749896029389 -s 0 -d 1 -p exp -e 1540 -c 0 -i 4 -a 0 -x {2.0 3.0 0 ---A--- null}
h -t 0.715749896029389 -s 0 -d 1 -p exp -e 1540 -c 0 -i 4 -a 0 -x {2.0 3.0 -1 ---A--- null}
r -t 0.716749896029389 -s 0 -d 2 -p ack -e 40 -c 0 -i 5 -a 0 -x {3.0 2.0 1 ------- null}
+ -t 0.716749896029389 -s 2 -d 0 -p exp -e 1540 -c 0 -i 6 -a 0 -x {2.0 3.0 0 ------- null}
- -t 0.716749896029389 -s 2 -d 0 -p exp -e 1540 -c 0 -i 6 -a 0 -x {2.0 3.0 0 ------- null}
h -t 0.716749896029389 -s 2 -d 0 -p exp -e 1540 -c 0 -i 6 -a 0 -x {2.0 3.0 -1 ------- null}
+ -t 0.716749896029389 -s 2 -d 0 -p exp -e 1540 -c 0 -i 7 -a 0 -x {2.0 3.0 0 ------- null}
r -t 0.785349896029389 -s 1 -d 3 -p exp -e 1540 -c 0 -i 3 -a 0 -x {2.0 3.0 0 ------- null}
+ -t 0.785349896029389 -s 3 -d 1 -p ack -e 40 -c 0 -i 8 -a 0 -x {3.0 2.0 2 ------- null}
- -t 0.785349896029389 -s 3 -d 1 -p ack -e 40 -c 0 -i 8 -a 0 -x {3.0 2.0 2 ------- null}
h -t 0.785349896029389 -s 3 -d 1 -p ack -e 40 -c 0 -i 8 -a 0 -x {3.0 2.0 -1 ------- null}
r -t 0.803549896029389 -s 3 -d 1 -p ack -e 40 -c 0 -i 8 -a 0 -x {3.0 2.0 2 ------- null}
+ -t 0.803549896029389 -s 1 -d 0 -p ack -e 40 -c 0 -i 8 -a 0 -x {3.0 2.0 2 ------- null}
- -t 0.803549896029389 -s 1 -d 0 -p ack -e 40 -c 0 -i 8 -a 0 -x {3.0 2.0 2 ------- null}
h -t 0.803549896029389 -s 1 -d 0 -p ack -e 40 -c 0 -i 8 -a 0 -x {3.0 2.0 -1 ------- null}
r -t 0.821749896029389 -s 1 -d 0 -p ack -e 40 -c 0 -i 8 -a 0 -x {3.0 2.0 2 ------- null}
+ -t 0.821749896029389 -s 0 -d 2 -p ack -e 40 -c 0 -i 8 -a 0 -x {3.0 2.0 2 ------- null}
- -t 0.821749896029389 -s 0 -d 2 -p ack -e 40 -c 0 -i 8 -a 0 -x {3.0 2.0 2 ------- null}
h -t 0.821749896029389 -s 0 -d 2 -p ack -e 40 -c 0 -i 8 -a 0 -x {3.0 2.0 -1 ------- null}
- -t 0.839949896029389 -s 2 -d 0 -p exp -e 1540 -c 0 -i 7 -a 0 -x {2.0 3.0 0 ------- null}
h -t 0.839949896029389 -s 2 -d 0 -p exp -e 1540 -c 0 -i 7 -a 0 -x {2.0 3.0 -1 ------- null}
r -t 0.839949896029389 -s 0 -d 2 -p ack -e 40 -c 0 -i 8 -a 0 -x {3.0 2.0 2 ------- null}
+ -t 0.839949896029389 -s 2 -d 0 -p exp -e 1540 -c 0 -i 9 -a 0 -x {2.0 3.0 0 ------- null}
r -t 0.853949896029389 -s 0 -d 1 -p exp -e 1540 -c 0 -i 4 -a 0 -x {2.0 3.0 0 ---A--- null}
+ -t 0.853949896029389 -s 1 -d 3 -p exp -e 1540 -c 0 -i 4 -a 0 -x {2.0 3.0 0 ---A--- null}
- -t 0.853949896029389 -s 1 -d 3 -p exp -e 1540 -c 0 -i 4 -a 0 -x {2.0 3.0 0 ---A--- null}
h -t 0.853949896029389 -s 1 -d 3 -p exp -e 1540 -c 0 -i 4 -a 0 -x {2.0 3.0 -1 ---A--- null}
r -t 0.854949896029389 -s 2 -d 0 -p exp -e 1540 -c 0 -i 6 -a 0 -x {2.0 3.0 0 ------- null}
+ -t 0.854949896029389 -s 0 -d 1 -p exp -e 1540 -c 0 -i 6 -a 0 -x {2.0 3.0 0 ------- null}
- -t 0.854949896029389 -s 0 -d 1 -p exp -e 1540 -c 0 -i 6 -a 0 -x {2.0 3.0 0 ------- null}
h -t 0.854949896029389 -s 0 -d 1 -p exp -e 1540 -c 0 -i 6 -a 0 -x {2.0 3.0 -1 ------- null}
- -t 0.963149896029389 -s 2 -d 0 -p exp -e 1540 -c 0 -i 9 -a 0 -x {2.0 3.0 0 ------- null}
h -t 0.963149896029389 -s 2 -d 0 -p exp -e 1540 -c 0 -i 9 -a 0 -x {2.0 3.0 -1 ------- null}
r -t 0.978149896029389 -s 2 -d 0 -p exp -e 1540 -c 0 -i 7 -a 0 -x {2.0 3.0 0 ------- null}
+ -t 0.978149896029389 -s 0 -d 1 -p exp -e 1540 -c 0 -i 7 -a 0 -x {2.0 3.0 0 ------- null}
- -t 0.978149896029389 -s 0 -d 1 -p exp -e 1540 -c 0 -i 7 -a 0 -x {2.0 3.0 0 ------- null}
h -t 0.978149896029389 -s 0 -d 1 -p exp -e 1540 -c 0 -i 7 -a 0 -x {2.0 3.0 -1 ------- null}
r -t 0.992149896029389 -s 1 -d 3 -p exp -e 1540 -c 0 -i 4 -a 0 -x {2.0 3.0 0 ---A--- null}
+ -t 0.992149896029389 -s 3 -d 1 -p ack -e 40 -c 0 -i 10 -a 0 -x {3.0 2.0 2 ------- null}
- -t 0.992149896029389 -s 3 -d 1 -p ack -e 40 -c 0 -i 10 -a 0 -x {3.0 2.0 2 ------- null}
h -t 0.992149896029389 -s 3 -d 1 -p ack -e 40 -c 0 -i 10 -a 0 -x {3.0 2.0 -1 ------- null}
r -t 0.993149896029389 -s 0 -d 1 -p exp -e 1540 -c 0 -i 6 -a 0 -x {2.0 3.0 0 ------- null}
+ -t 0.993149896029389 -s 1 -d 3 -p exp -e 1540 -c 0 -i 6 -a 0 -x {2.0 3.0 0 ------- null}
- -t 0.993149896029389 -s 1 -d 3 -p exp -e 1540 -c 0 -i 6 -a 0 -x {2.0 3.0 0 ------- null}
h -t 0.993149896029389 -s 1 -d 3 -p exp -e 1540 -c 0 -i 6 -a 0 -x {2.0 3.0 -1 ------- null}
r -t 1.01034989602939 -s 3 -d 1 -p ack -e 40 -c 0 -i 10 -a 0 -x {3.0 2.0 2 ------- null}
+ -t 1.01034989602939 -s 1 -d 0 -p ack -e 40 -c 0 -i 10 -a 0 -x {3.0 2.0 2 ------- null}
- -t 1.01034989602939 -s 1 -d 0 -p ack -e 40 -c 0 -i 10 -a 0 -x {3.0 2.0 2 ------- null}
h -t 1.01034989602939 -s 1 -d 0 -p ack -e 40 -c 0 -i 10 -a 0 -x {3.0 2.0 -1 ------- null}
r -t 1.02854989602939 -s 1 -d 0 -p ack -e 40 -c 0 -i 10 -a 0 -x {3.0 2.0 2 ------- null}
+ -t 1.02854989602939 -s 0 -d 2 -p ack -e 40 -c 0 -i 10 -a 0 -x {3.0 2.0 2 ------- null}
- -t 1.02854989602939 -s 0 -d 2 -p ack -e 40 -c 0 -i 10 -a 0 -x {3.0 2.0 2 ------- null}
h -t 1.02854989602939 -s 0 -d 2 -p ack -e 40 -c 0 -i 10 -a 0 -x {3.0 2.0 -1 ------- null}
r -t 1.04674989602939 -s 0 -d 2 -p ack -e 40 -c 0 -i 10 -a 0 -x {3.0 2.0 2 ------- null}
+ -t 1.04674989602939 -s 2 -d 0 -p exp -e 1540 -c 0 -i 11 -a 0 -x {2.0 3.0 0 ------- null}
- -t 1.08634989602939 -s 2 -d 0 -p exp -e 1540 -c 0 -i 11 -a 0 -x {2.0 3.0 0 ------- null}
h -t 1.08634989602939 -s 2 -d 0 -p exp -e 1540 -c 0 -i 11 -a 0 -x {2.0 3.0 -1 ------- null}
r -t 1.10134989602939 -s 2 -d 0 -p exp -e 1540 -c 0 -i 9 -a 0 -x {2.0 3.0 0 ------- null}
+ -t 1.10134989602939 -s 0 -d 1 -p exp -e 1540 -c 0 -i 9 -a 0 -x {2.0 3.0 0 ------- null}
- -t 1.10134989602939 -s 0 -d 1 -p exp -e 1540 -c 0 -i 9 -a 0 -x {2.0 3.0 0 ------- null}
h -t 1.10134989602939 -s 0 -d 1 -p exp -e 1540 -c 0 -i 9 -a 0 -x {2.0 3.0 -1 ------- null}
r -t 1.11634989602939 -s 0 -d 1 -p exp -e 1540 -c 0 -i 7 -a 0 -x {2.0 3.0 0 ------- null}
+ -t 1.11634989602939 -s 1 -d 3 -p exp -e 1540 -c 0 -i 7 -a 0 -x {2.0 3.0 0 ------- null}
- -t 1.11634989602939 -s 1 -d 3 -p exp -e 1540 -c 0 -i 7 -a 0 -x {2.0 3.0 0 ------- null}
h -t 1.11634989602939 -s 1 -d 3 -p exp -e 1540 -c 0 -i 7 -a 0 -x {2.0 3.0 -1 ------- null}
r -t 1.13134989602939 -s 1 -d 3 -p exp -e 1540 -c 0 -i 6 -a 0 -x {2.0 3.0 0 ------- null}
+ -t 1.13134989602939 -s 3 -d 1 -p ack -e 40 -c 0 -i 12 -a 0 -x {3.0 2.0 2 ------- null}
- -t 1.13134989602939 -s 3 -d 1 -p ack -e 40 -c 0 -i 12 -a 0 -x {3.0 2.0 2 ------- null}
h -t 1.13134989602939 -s 3 -d 1 -p ack -e 40 -c 0 -i 12 -a 0 -x {3.0 2.0 -1 ------- null}
r -t 1.14954989602939 -s 3 -d 1 -p ack -e 40 -c 0 -i 12 -a 0 -x {3.0 2.0 2 ------- null}
+ -t 1.14954989602939 -s 1 -d 0 -p ack -e 40 -c 0 -i 12 -a 0 -x {3.0 2.0 2 ------- null}
- -t 1.14954989602939 -s 1 -d 0 -p ack -e 40 -c 0 -i 12 -a 0 -x {3.0 2.0 2 ------- null}
h -t 1.14954989602939 -s 1 -d 0 -p ack -e 40 -c 0 -i 12 -a 0 -x {3.0 2.0 -1 ------- null}
r -t 1.16774989602939 -s 1 -d 0 -p ack -e 40 -c 0 -i 12 -a 0 -x {3.0 2.0 2 ------- null}
+ -t 1.16774989602939 -s 0 -d 2 -p ack -e 40 -c 0 -i 12 -a 0 -x {3.0 2.0 2 ------- null}
- -t 1.16774989602939 -s 0 -d 2 -p ack -e 40 -c 0 -i 12 -a 0 -x {3.0 2.0 2 ------- null}
h -t 1.16774989602939 -s 0 -d 2 -p ack -e 40 -c 0 -i 12 -a 0 -x {3.0 2.0 -1 ------- null}
r -t 1.18594989602939 -s 0 -d 2 -p ack -e 40 -c 0 -i 12 -a 0 -x {3.0 2.0 2 ------- null}
+ -t 1.18594989602939 -s 2 -d 0 -p exp -e 1540 -c 0 -i 13 -a 0 -x {2.0 3.0 0 ------- null}
- -t 1.20954989602939 -s 2 -d 0 -p exp -e 1540 -c 0 -i 13 -a 0 -x {2.0 3.0 0 ------- null}
h -t 1.20954989602939 -s 2 -d 0 -p exp -e 1540 -c 0 -i 13 -a 0 -x {2.0 3.0 -1 ------- null}
r -t 1.22454989602939 -s 2 -d 0 -p exp -e 1540 -c 0 -i 11 -a 0 -x {2.0 3.0 0 ------- null}
+ -t 1.22454989602939 -s 0 -d 1 -p exp -e 1540 -c 0 -i 11 -a 0 -x {2.0 3.0 0 ------- null}
- -t 1.22454989602939 -s 0 -d 1 -p exp -e 1540 -c 0 -i 11 -a 0 -x {2.0 3.0 0 ------- null}
h -t 1.22454989602939 -s 0 -d 1 -p exp -e 1540 -c 0 -i 11 -a 0 -x {2.0 3.0 -1 ------- null}
r -t 1.23954989602939 -s 0 -d 1 -p exp -e 1540 -c 0 -i 9 -a 0 -x {2.0 3.0 0 ------- null}
+ -t 1.23954989602939 -s 1 -d 3 -p exp -e 1540 -c 0 -i 9 -a 0 -x {2.0 3.0 0 ------- null}
- -t 1.23954989602939 -s 1 -d 3 -p exp -e 1540 -c 0 -i 9 -a 0 -x {2.0 3.0 0 ------- null}
h -t 1.23954989602939 -s 1 -d 3 -p exp -e 1540 -c 0 -i 9 -a 0 -x {2.0 3.0 -1 ------- null}
+ -t 1.25028094513941 -s 4 -d 0 -p exp -e 40 -c 0 -i 14 -a 0 -x {4.0 5.0 0 ------- null}
- -t 1.25028094513941 -s 4 -d 0 -p exp -e 40 -c 0 -i 14 -a 0 -x {4.0 5.0 0 ------- null}
h -t 1.25028094513941 -s 4 -d 0 -p exp -e 40 -c 0 -i 14 -a 0 -x {4.0 5.0 -1 ------- null}
r -t 1.25454989602939 -s 1 -d 3 -p exp -e 1540 -c 0 -i 7 -a 0 -x {2.0 3.0 0 ------- null}
+ -t 1.25454989602939 -s 3 -d 1 -p ack -e 40 -c 0 -i 15 -a 0 -x {3.0 2.0 3 ------- null}
- -t 1.25454989602939 -s 3 -d 1 -p ack -e 40 -c 0 -i 15 -a 0 -x {3.0 2.0 3 ------- null}
h -t 1.25454989602939 -s 3 -d 1 -p ack -e 40 -c 0 -i 15 -a 0 -x {3.0 2.0 -1 ------- null}
r -t 1.26848094513941 -s 4 -d 0 -p exp -e 40 -c 0 -i 14 -a 0 -x {4.0 5.0 0 ------- null}
+ -t 1.26848094513941 -s 0 -d 1 -p exp -e 40 -c 0 -i 14 -a 0 -x {4.0 5.0 0 ------- null}
r -t 1.27274989602939 -s 3 -d 1 -p ack -e 40 -c 0 -i 15 -a 0 -x {3.0 2.0 3 ------- null}
+ -t 1.27274989602939 -s 1 -d 0 -p ack -e 40 -c 0 -i 15 -a 0 -x {3.0 2.0 3 ------- null}
- -t 1.27274989602939 -s 1 -d 0 -p ack -e 40 -c 0 -i 15 -a 0 -x {3.0 2.0 3 ------- null}
h -t 1.27274989602939 -s 1 -d 0 -p ack -e 40 -c 0 -i 15 -a 0 -x {3.0 2.0 -1 ------- null}
r -t 1.29094989602939 -s 1 -d 0 -p ack -e 40 -c 0 -i 15 -a 0 -x {3.0 2.0 3 ------- null}
+ -t 1.29094989602939 -s 0 -d 2 -p ack -e 40 -c 0 -i 15 -a 0 -x {3.0 2.0 3 ------- null}
- -t 1.29094989602939 -s 0 -d 2 -p ack -e 40 -c 0 -i 15 -a 0 -x {3.0 2.0 3 ------- null}
h -t 1.29094989602939 -s 0 -d 2 -p ack -e 40 -c 0 -i 15 -a 0 -x {3.0 2.0 -1 ------- null}
r -t 1.30914989602939 -s 0 -d 2 -p ack -e 40 -c 0 -i 15 -a 0 -x {3.0 2.0 3 ------- null}
r -t 1.34774989602939 -s 2 -d 0 -p exp -e 1540 -c 0 -i 13 -a 0 -x {2.0 3.0 0 ------- null}
+ -t 1.34774989602939 -s 0 -d 1 -p exp -e 1540 -c 0 -i 13 -a 0 -x {2.0 3.0 0 ------- null}
- -t 1.34774989602939 -s 0 -d 1 -p exp -e 40 -c 0 -i 14 -a 0 -x {4.0 5.0 0 ------- null}
h -t 1.34774989602939 -s 0 -d 1 -p exp -e 40 -c 0 -i 14 -a 0 -x {4.0 5.0 -1 ------- null}
- -t 1.35094989602939 -s 0 -d 1 -p exp -e 1540 -c 0 -i 13 -a 0 -x {2.0 3.0 0 ------- null}
h -t 1.35094989602939 -s 0 -d 1 -p exp -e 1540 -c 0 -i 13 -a 0 -x {2.0 3.0 -1 ------- null}
r -t 1.36274989602939 -s 0 -d 1 -p exp -e 1540 -c 0 -i 11 -a 0 -x {2.0 3.0 0 ------- null}
+ -t 1.36274989602939 -s 1 -d 3 -p exp -e 1540 -c 0 -i 11 -a 0 -x {2.0 3.0 0 ------- null}
- -t 1.36274989602939 -s 1 -d 3 -p exp -e 1540 -c 0 -i 11 -a 0 -x {2.0 3.0 0 ------- null}
h -t 1.36274989602939 -s 1 -d 3 -p exp -e 1540 -c 0 -i 11 -a 0 -x {2.0 3.0 -1 ------- null}
r -t 1.36594989602939 -s 0 -d 1 -p exp -e 40 -c 0 -i 14 -a 0 -x {4.0 5.0 0 ------- null}
+ -t 1.36594989602939 -s 1 -d 5 -p exp -e 40 -c 0 -i 14 -a 0 -x {4.0 5.0 0 ------- null}
- -t 1.36594989602939 -s 1 -d 5 -p exp -e 40 -c 0 -i 14 -a 0 -x {4.0 5.0 0 ------- null}
h -t 1.36594989602939 -s 1 -d 5 -p exp -e 40 -c 0 -i 14 -a 0 -x {4.0 5.0 -1 ------- null}
r -t 1.37774989602939 -s 1 -d 3 -p exp -e 1540 -c 0 -i 9 -a 0 -x {2.0 3.0 0 ------- null}
+ -t 1.37774989602939 -s 3 -d 1 -p ack -e 40 -c 0 -i 16 -a 0 -x {3.0 2.0 4 ------- null}
- -t 1.37774989602939 -s 3 -d 1 -p ack -e 40 -c 0 -i 16 -a 0 -x {3.0 2.0 4 ------- null}
h -t 1.37774989602939 -s 3 -d 1 -p ack -e 40 -c 0 -i 16 -a 0 -x {3.0 2.0 -1 ------- null}
r -t 1.38414989602939 -s 1 -d 5 -p exp -e 40 -c 0 -i 14 -a 0 -x {4.0 5.0 0 ------- null}
+ -t 1.38414989602939 -s 5 -d 1 -p ack -e 40 -c 0 -i 17 -a 0 -x {5.0 4.0 0 ------- null}
- -t 1.38414989602939 -s 5 -d 1 -p ack -e 40 -c 0 -i 17 -a 0 -x {5.0 4.0 0 ------- null}
h -t 1.38414989602939 -s 5 -d 1 -p ack -e 40 -c 0 -i 17 -a 0 -x {5.0 4.0 -1 ------- null}
r -t 1.39594989602939 -s 3 -d 1 -p ack -e 40 -c 0 -i 16 -a 0 -x {3.0 2.0 4 ------- null}
+ -t 1.39594989602939 -s 1 -d 0 -p ack -e 40 -c 0 -i 16 -a 0 -x {3.0 2.0 4 ------- null}
- -t 1.39594989602939 -s 1 -d 0 -p ack -e 40 -c 0 -i 16 -a 0 -x {3.0 2.0 4 ------- null}
h -t 1.39594989602939 -s 1 -d 0 -p ack -e 40 -c 0 -i 16 -a 0 -x {3.0 2.0 -1 ------- null}
r -t 1.40234989602939 -s 5 -d 1 -p ack -e 40 -c 0 -i 17 -a 0 -x {5.0 4.0 0 ------- null}
+ -t 1.40234989602939 -s 1 -d 0 -p ack -e 40 -c 0 -i 17 -a 0 -x {5.0 4.0 0 ------- null}
- -t 1.40234989602939 -s 1 -d 0 -p ack -e 40 -c 0 -i 17 -a 0 -x {5.0 4.0 0 ------- null}
h -t 1.40234989602939 -s 1 -d 0 -p ack -e 40 -c 0 -i 17 -a 0 -x {5.0 4.0 -1 ------- null}
r -t 1.41414989602939 -s 1 -d 0 -p ack -e 40 -c 0 -i 16 -a 0 -x {3.0 2.0 4 ------- null}
+ -t 1.41414989602939 -s 0 -d 2 -p ack -e 40 -c 0 -i 16 -a 0 -x {3.0 2.0 4 ------- null}
- -t 1.41414989602939 -s 0 -d 2 -p ack -e 40 -c 0 -i 16 -a 0 -x {3.0 2.0 4 ------- null}
h -t 1.41414989602939 -s 0 -d 2 -p ack -e 40 -c 0 -i 16 -a 0 -x {3.0 2.0 -1 ------- null}
r -t 1.42054989602939 -s 1 -d 0 -p ack -e 40 -c 0 -i 17 -a 0 -x {5.0 4.0 0 ------- null}
+ -t 1.42054989602939 -s 0 -d 4 -p ack -e 40 -c 0 -i 17 -a 0 -x {5.0 4.0 0 ------- null}
- -t 1.42054989602939 -s 0 -d 4 -p ack -e 40 -c 0 -i 17 -a 0 -x {5.0 4.0 0 ------- null}
h -t 1.42054989602939 -s 0 -d 4 -p ack -e 40 -c 0 -i 17 -a 0 -x {5.0 4.0 -1 ------- null}
r -t 1.43234989602939 -s 0 -d 2 -p ack -e 40 -c 0 -i 16 -a 0 -x {3.0 2.0 4 ------- null}
+ -t 1.43234989602939 -s 2 -d 0 -p exp -e 1540 -c 0 -i 18 -a 0 -x {2.0 3.0 0 ------- null}
- -t 1.43234989602939 -s 2 -d 0 -p exp -e 1540 -c 0 -i 18 -a 0 -x {2.0 3.0 0 ------- null}
h -t 1.43234989602939 -s 2 -d 0 -p exp -e 1540 -c 0 -i 18 -a 0 -x {2.0 3.0 -1 ------- null}
r -t 1.43874989602939 -s 0 -d 4 -p ack -e 40 -c 0 -i 17 -a 0 -x {5.0 4.0 0 ------- null}
+ -t 1.43874989602939 -s 4 -d 0 -p exp -e 1540 -c 0 -i 19 -a 0 -x {4.0 5.0 0 ------- null}
- -t 1.43874989602939 -s 4 -d 0 -p exp -e 1540 -c 0 -i 19 -a 0 -x {4.0 5.0 0 ------- null}
h -t 1.43874989602939 -s 4 -d 0 -p exp -e 1540 -c 0 -i 19 -a 0 -x {4.0 5.0 -1 ------- null}
+ -t 1.43874989602939 -s 4 -d 0 -p exp -e 1540 -c 0 -i 20 -a 0 -x {4.0 5.0 0 ------- null}
r -t 1.48914989602939 -s 0 -d 1 -p exp -e 1540 -c 0 -i 13 -a 0 -x {2.0 3.0 0 ------- null}
+ -t 1.48914989602939 -s 1 -d 3 -p exp -e 1540 -c 0 -i 13 -a 0 -x {2.0 3.0 0 ------- null}
- -t 1.48914989602939 -s 1 -d 3 -p exp -e 1540 -c 0 -i 13 -a 0 -x {2.0 3.0 0 ------- null}
h -t 1.48914989602939 -s 1 -d 3 -p exp -e 1540 -c 0 -i 13 -a 0 -x {2.0 3.0 -1 ------- null}
r -t 1.50094989602939 -s 1 -d 3 -p exp -e 1540 -c 0 -i 11 -a 0 -x {2.0 3.0 0 ------- null}
+ -t 1.50094989602939 -s 3 -d 1 -p ack -e 40 -c 0 -i 21 -a 0 -x {3.0 2.0 5 ------- null}
- -t 1.50094989602939 -s 3 -d 1 -p ack -e 40 -c 0 -i 21 -a 0 -x {3.0 2.0 5 ------- null}
h -t 1.50094989602939 -s 3 -d 1 -p ack -e 40 -c 0 -i 21 -a 0 -x {3.0 2.0 -1 ------- null}
r -t 1.51914989602939 -s 3 -d 1 -p ack -e 40 -c 0 -i 21 -a 0 -x {3.0 2.0 5 ------- null}
+ -t 1.51914989602939 -s 1 -d 0 -p ack -e 40 -c 0 -i 21 -a 0 -x {3.0 2.0 5 ------- null}
- -t 1.51914989602939 -s 1 -d 0 -p ack -e 40 -c 0 -i 21 -a 0 -x {3.0 2.0 5 ------- null}
h -t 1.51914989602939 -s 1 -d 0 -p ack -e 40 -c 0 -i 21 -a 0 -x {3.0 2.0 -1 ------- null}
r -t 1.53734989602939 -s 1 -d 0 -p ack -e 40 -c 0 -i 21 -a 0 -x {3.0 2.0 5 ------- null}
+ -t 1.53734989602939 -s 0 -d 2 -p ack -e 40 -c 0 -i 21 -a 0 -x {3.0 2.0 5 ------- null}
- -t 1.53734989602939 -s 0 -d 2 -p ack -e 40 -c 0 -i 21 -a 0 -x {3.0 2.0 5 ------- null}
h -t 1.53734989602939 -s 0 -d 2 -p ack -e 40 -c 0 -i 21 -a 0 -x {3.0 2.0 -1 ------- null}
r -t 1.55554989602939 -s 0 -d 2 -p ack -e 40 -c 0 -i 21 -a 0 -x {3.0 2.0 5 ------- null}
+ -t 1.55554989602939 -s 2 -d 0 -p exp -e 1540 -c 0 -i 22 -a 0 -x {2.0 3.0 0 ------- null}
- -t 1.55554989602939 -s 2 -d 0 -p exp -e 1540 -c 0 -i 22 -a 0 -x {2.0 3.0 0 ------- null}
h -t 1.55554989602939 -s 2 -d 0 -p exp -e 1540 -c 0 -i 22 -a 0 -x {2.0 3.0 -1 ------- null}
- -t 1.56194989602939 -s 4 -d 0 -p exp -e 1540 -c 0 -i 20 -a 0 -x {4.0 5.0 0 ------- null}
h -t 1.56194989602939 -s 4 -d 0 -p exp -e 1540 -c 0 -i 20 -a 0 -x {4.0 5.0 -1 ------- null}
r -t 1.57054989602939 -s 2 -d 0 -p exp -e 1540 -c 0 -i 18 -a 0 -x {2.0 3.0 0 ------- null}
+ -t 1.57054989602939 -s 0 -d 1 -p exp -e 1540 -c 0 -i 18 -a 0 -x {2.0 3.0 0 ------- null}
- -t 1.57054989602939 -s 0 -d 1 -p exp -e 1540 -c 0 -i 18 -a 0 -x {2.0 3.0 0 ------- null}
h -t 1.57054989602939 -s 0 -d 1 -p exp -e 1540 -c 0 -i 18 -a 0 -x {2.0 3.0 -1 ------- null}
r -t 1.57694989602939 -s 4 -d 0 -p exp -e 1540 -c 0 -i 19 -a 0 -x {4.0 5.0 0 ------- null}
+ -t 1.57694989602939 -s 0 -d 1 -p exp -e 1540 -c 0 -i 19 -a 0 -x {4.0 5.0 0 ------- null}
r -t 1.62734989602939 -s 1 -d 3 -p exp -e 1540 -c 0 -i 13 -a 0 -x {2.0 3.0 0 ------- null}
+ -t 1.62734989602939 -s 3 -d 1 -p ack -e 40 -c 0 -i 23 -a 0 -x {3.0 2.0 6 ------- null}
- -t 1.62734989602939 -s 3 -d 1 -p ack -e 40 -c 0 -i 23 -a 0 -x {3.0 2.0 6 ------- null}
h -t 1.62734989602939 -s 3 -d 1 -p ack -e 40 -c 0 -i 23 -a 0 -x {3.0 2.0 -1 ------- null}
r -t 1.64554989602939 -s 3 -d 1 -p ack -e 40 -c 0 -i 23 -a 0 -x {3.0 2.0 6 ------- null}
+ -t 1.64554989602939 -s 1 -d 0 -p ack -e 40 -c 0 -i 23 -a 0 -x {3.0 2.0 6 ------- null}
- -t 1.64554989602939 -s 1 -d 0 -p ack -e 40 -c 0 -i 23 -a 0 -x {3.0 2.0 6 ------- null}
h -t 1.64554989602939 -s 1 -d 0 -p ack -e 40 -c 0 -i 23 -a 0 -x {3.0 2.0 -1 ------- null}
r -t 1.66374989602939 -s 1 -d 0 -p ack -e 40 -c 0 -i 23 -a 0 -x {3.0 2.0 6 ------- null}
+ -t 1.66374989602939 -s 0 -d 2 -p ack -e 40 -c 0 -i 23 -a 0 -x {3.0 2.0 6 ------- null}
- -t 1.66374989602939 -s 0 -d 2 -p ack -e 40 -c 0 -i 23 -a 0 -x {3.0 2.0 6 ------- null}
h -t 1.66374989602939 -s 0 -d 2 -p ack -e 40 -c 0 -i 23 -a 0 -x {3.0 2.0 -1 ------- null}
r -t 1.68194989602939 -s 0 -d 2 -p ack -e 40 -c 0 -i 23 -a 0 -x {3.0 2.0 6 ------- null}
+ -t 1.68194989602939 -s 2 -d 0 -p exp -e 1540 -c 0 -i 24 -a 0 -x {2.0 3.0 0 ------- null}
- -t 1.68194989602939 -s 2 -d 0 -p exp -e 1540 -c 0 -i 24 -a 0 -x {2.0 3.0 0 ------- null}
h -t 1.68194989602939 -s 2 -d 0 -p exp -e 1540 -c 0 -i 24 -a 0 -x {2.0 3.0 -1 ------- null}
- -t 1.69374989602939 -s 0 -d 1 -p exp -e 1540 -c 0 -i 19 -a 0 -x {4.0 5.0 0 ------- null}
h -t 1.69374989602939 -s 0 -d 1 -p exp -e 1540 -c 0 -i 19 -a 0 -x {4.0 5.0 -1 ------- null}
r -t 1.69374989602939 -s 2 -d 0 -p exp -e 1540 -c 0 -i 22 -a 0 -x {2.0 3.0 0 ------- null}
+ -t 1.69374989602939 -s 0 -d 1 -p exp -e 1540 -c 0 -i 22 -a 0 -x {2.0 3.0 0 ------- null}
r -t 1.70014989602939 -s 4 -d 0 -p exp -e 1540 -c 0 -i 20 -a 0 -x {4.0 5.0 0 ------- null}
+ -t 1.70014989602939 -s 0 -d 1 -p exp -e 1540 -c 0 -i 20 -a 0 -x {4.0 5.0 0 ------- null}
r -t 1.70874989602939 -s 0 -d 1 -p exp -e 1540 -c 0 -i 18 -a 0 -x {2.0 3.0 0 ------- null}
+ -t 1.70874989602939 -s 1 -d 3 -p exp -e 1540 -c 0 -i 18 -a 0 -x {2.0 3.0 0 ------- null}
- -t 1.70874989602939 -s 1 -d 3 -p exp -e 1540 -c 0 -i 18 -a 0 -x {2.0 3.0 0 ------- null}
h -t 1.70874989602939 -s 1 -d 3 -p exp -e 1540 -c 0 -i 18 -a 0 -x {2.0 3.0 -1 ------- null}
- -t 1.81694989602939 -s 0 -d 1 -p exp -e 1540 -c 0 -i 22 -a 0 -x {2.0 3.0 0 ------- null}
h -t 1.81694989602939 -s 0 -d 1 -p exp -e 1540 -c 0 -i 22 -a 0 -x {2.0 3.0 -1 ------- null}
r -t 1.82014989602939 -s 2 -d 0 -p exp -e 1540 -c 0 -i 24 -a 0 -x {2.0 3.0 0 ------- null}
+ -t 1.82014989602939 -s 0 -d 1 -p exp -e 1540 -c 0 -i 24 -a 0 -x {2.0 3.0 0 ------- null}
r -t 1.83194989602939 -s 0 -d 1 -p exp -e 1540 -c 0 -i 19 -a 0 -x {4.0 5.0 0 ------- null}
+ -t 1.83194989602939 -s 1 -d 5 -p exp -e 1540 -c 0 -i 19 -a 0 -x {4.0 5.0 0 ------- null}
- -t 1.83194989602939 -s 1 -d 5 -p exp -e 1540 -c 0 -i 19 -a 0 -x {4.0 5.0 0 ------- null}
h -t 1.83194989602939 -s 1 -d 5 -p exp -e 1540 -c 0 -i 19 -a 0 -x {4.0 5.0 -1 ------- null}
r -t 1.84694989602939 -s 1 -d 3 -p exp -e 1540 -c 0 -i 18 -a 0 -x {2.0 3.0 0 ------- null}
+ -t 1.84694989602939 -s 3 -d 1 -p ack -e 40 -c 0 -i 25 -a 0 -x {3.0 2.0 7 ------- null}
- -t 1.84694989602939 -s 3 -d 1 -p ack -e 40 -c 0 -i 25 -a 0 -x {3.0 2.0 7 ------- null}
h -t 1.84694989602939 -s 3 -d 1 -p ack -e 40 -c 0 -i 25 -a 0 -x {3.0 2.0 -1 ------- null}
r -t 1.86514989602939 -s 3 -d 1 -p ack -e 40 -c 0 -i 25 -a 0 -x {3.0 2.0 7 ------- null}
+ -t 1.86514989602939 -s 1 -d 0 -p ack -e 40 -c 0 -i 25 -a 0 -x {3.0 2.0 7 ------- null}
- -t 1.86514989602939 -s 1 -d 0 -p ack -e 40 -c 0 -i 25 -a 0 -x {3.0 2.0 7 ------- null}
h -t 1.86514989602939 -s 1 -d 0 -p ack -e 40 -c 0 -i 25 -a 0 -x {3.0 2.0 -1 ------- null}
r -t 1.88334989602939 -s 1 -d 0 -p ack -e 40 -c 0 -i 25 -a 0 -x {3.0 2.0 7 ------- null}
+ -t 1.88334989602939 -s 0 -d 2 -p ack -e 40 -c 0 -i 25 -a 0 -x {3.0 2.0 7 ------- null}
- -t 1.88334989602939 -s 0 -d 2 -p ack -e 40 -c 0 -i 25 -a 0 -x {3.0 2.0 7 ------- null}
h -t 1.88334989602939 -s 0 -d 2 -p ack -e 40 -c 0 -i 25 -a 0 -x {3.0 2.0 -1 ------- null}
r -t 1.90154989602939 -s 0 -d 2 -p ack -e 40 -c 0 -i 25 -a 0 -x {3.0 2.0 7 ------- null}
+ -t 1.90154989602939 -s 2 -d 0 -p exp -e 1540 -c 0 -i 26 -a 0 -x {2.0 3.0 0 ------- null}
- -t 1.90154989602939 -s 2 -d 0 -p exp -e 1540 -c 0 -i 26 -a 0 -x {2.0 3.0 0 ------- null}
h -t 1.90154989602939 -s 2 -d 0 -p exp -e 1540 -c 0 -i 26 -a 0 -x {2.0 3.0 -1 ------- null}
+ -t 1.90154989602939 -s 2 -d 0 -p exp -e 1540 -c 0 -i 27 -a 0 -x {2.0 3.0 0 ------- null}
- -t 1.94014989602939 -s 0 -d 1 -p exp -e 1540 -c 0 -i 20 -a 0 -x {4.0 5.0 0 ------- null}
h -t 1.94014989602939 -s 0 -d 1 -p exp -e 1540 -c 0 -i 20 -a 0 -x {4.0 5.0 -1 ------- null}
r -t 1.95514989602939 -s 0 -d 1 -p exp -e 1540 -c 0 -i 22 -a 0 -x {2.0 3.0 0 ------- null}
+ -t 1.95514989602939 -s 1 -d 3 -p exp -e 1540 -c 0 -i 22 -a 0 -x {2.0 3.0 0 ------- null}
- -t 1.95514989602939 -s 1 -d 3 -p exp -e 1540 -c 0 -i 22 -a 0 -x {2.0 3.0 0 ------- null}
h -t 1.95514989602939 -s 1 -d 3 -p exp -e 1540 -c 0 -i 22 -a 0 -x {2.0 3.0 -1 ------- null}
r -t 1.97014989602939 -s 1 -d 5 -p exp -e 1540 -c 0 -i 19 -a 0 -x {4.0 5.0 0 ------- null}
+ -t 1.97014989602939 -s 5 -d 1 -p ack -e 40 -c 0 -i 28 -a 0 -x {5.0 4.0 1 ------- null}
- -t 1.97014989602939 -s 5 -d 1 -p ack -e 40 -c 0 -i 28 -a 0 -x {5.0 4.0 1 ------- null}
h -t 1.97014989602939 -s 5 -d 1 -p ack -e 40 -c 0 -i 28 -a 0 -x {5.0 4.0 -1 ------- null}
+ -t 1.97874989602939 -s 4 -d 0 -p exp -e 1540 -c 0 -i 29 -a 0 -x {4.0 5.0 0 ---A--- null}
- -t 1.97874989602939 -s 4 -d 0 -p exp -e 1540 -c 0 -i 29 -a 0 -x {4.0 5.0 0 ---A--- null}
h -t 1.97874989602939 -s 4 -d 0 -p exp -e 1540 -c 0 -i 29 -a 0 -x {4.0 5.0 -1 ---A--- null}
r -t 1.98834989602939 -s 5 -d 1 -p ack -e 40 -c 0 -i 28 -a 0 -x {5.0 4.0 1 ------- null}
+ -t 1.98834989602939 -s 1 -d 0 -p ack -e 40 -c 0 -i 28 -a 0 -x {5.0 4.0 1 ------- null}
- -t 1.98834989602939 -s 1 -d 0 -p ack -e 40 -c 0 -i 28 -a 0 -x {5.0 4.0 1 ------- null}
h -t 1.98834989602939 -s 1 -d 0 -p ack -e 40 -c 0 -i 28 -a 0 -x {5.0 4.0 -1 ------- null}
r -t 2.00654989602939 -s 1 -d 0 -p ack -e 40 -c 0 -i 28 -a 0 -x {5.0 4.0 1 ------- null}
+ -t 2.00654989602939 -s 0 -d 4 -p ack -e 40 -c 0 -i 28 -a 0 -x {5.0 4.0 1 ------- null}
- -t 2.00654989602939 -s 0 -d 4 -p ack -e 40 -c 0 -i 28 -a 0 -x {5.0 4.0 1 ------- null}
h -t 2.00654989602939 -s 0 -d 4 -p ack -e 40 -c 0 -i 28 -a 0 -x {5.0 4.0 -1 ------- null}
- -t 2.02474989602939 -s 2 -d 0 -p exp -e 1540 -c 0 -i 27 -a 0 -x {2.0 3.0 0 ------- null}
h -t 2.02474989602939 -s 2 -d 0 -p exp -e 1540 -c 0 -i 27 -a 0 -x {2.0 3.0 -1 ------- null}
r -t 2.02474989602939 -s 0 -d 4 -p ack -e 40 -c 0 -i 28 -a 0 -x {5.0 4.0 1 ------- null}
+ -t 2.02474989602939 -s 4 -d 0 -p exp -e 1540 -c 0 -i 30 -a 0 -x {4.0 5.0 0 ------- null}
+ -t 2.02474989602939 -s 4 -d 0 -p exp -e 1540 -c 0 -i 31 -a 0 -x {4.0 5.0 0 ------- null}
r -t 2.03974989602939 -s 2 -d 0 -p exp -e 1540 -c 0 -i 26 -a 0 -x {2.0 3.0 0 ------- null}
+ -t 2.03974989602939 -s 0 -d 1 -p exp -e 1540 -c 0 -i 26 -a 0 -x {2.0 3.0 0 ------- null}