V -t * -v 1.0a5 -a 0
A -t * -n 1 -p 0 -o 0x7fffffff -c 30 -a 1
A -t * -h 1 -m 1073741823 -s 0
n -t * -a 8 -s 8 -S UP -v circle -c black -i black
n -t * -a 4 -s 4 -S UP -v circle -c black -i black
n -t * -a 0 -s 0 -S UP -v circle -c black -i black
n -t * -a 9 -s 9 -S UP -v circle -c black -i black
n -t * -a 5 -s 5 -S UP -v circle -c black -i black
n -t * -a 1 -s 1 -S UP -v circle -c black -i black
n -t * -a 6 -s 6 -S UP -v circle -c black -i black
n -t * -a 2 -s 2 -S UP -v circle -c black -i black
n -t * -a 7 -s 7 -S UP -v circle -c black -i black
n -t * -a 3 -s 3 -S UP -v circle -c black -i black
l -t * -s 0 -d 1 -S UP -r 100000 -D 0.014999999999999999 -c black
l -t * -s 2 -d 0 -S UP -r 100000 -D 0.014999999999999999 -c black
l -t * -s 3 -d 1 -S UP -r 100000 -D 0.014999999999999999 -c black
l -t * -s 4 -d 0 -S UP -r 100000 -D 0.014999999999999999 -c black
l -t * -s 5 -d 1 -S UP -r 100000 -D 0.014999999999999999 -c black
l -t * -s 6 -d 0 -S UP -r 100000 -D 0.014999999999999999 -c black
l -t * -s 7 -d 1 -S UP -r 100000 -D 0.014999999999999999 -c black
l -t * -s 8 -d 0 -S UP -r 100000 -D 0.014999999999999999 -c black
l -t * -s 9 -d 1 -S UP -r 100000 -D 0.014999999999999999 -c black
+ -t 0.250280945139406 -s 2 -d 0 -p exp -e 40 -c 0 -i 0 -a 0 -x {2.0 3.0 0 ------- null}
- -t 0.250280945139406 -s 2 -d 0 -p exp -e 40 -c 0 -i 0 -a 0 -x {2.0 3.0 0 ------- null}
h -t 0.250280945139406 -s 2 -d 0 -p exp -e 40 -c 0 -i 0 -a 0 -x {2.0 3.0 -1 ------- null}
r -t 0.268480945139406 -s 2 -d 0 -p exp -e 40 -c 0 -i 0 -a 0 -x {2.0 3.0 0 ------- null}
+ -t 0.268480945139406 -s 0 -d 1 -p exp -e 40 -c 0 -i 0 -a 0 -x {2.0 3.0 0 ------- null}
- -t 0.268480945139406 -s 0 -d 1 -p exp -e 40 -c 0 -i 0 -a 0 -x {2.0 3.0 0 ------- null}
h -t 0.268480945139406 -s 0 -d 1 -p exp -e 40 -c 0 -i 0 -a 0 -x {2.0 3.0 -1 ------- null}
r -t 0.286680945139406 -s 0 -d 1 -p exp -e 40 -c 0 -i 0 -a 0 -x {2.0 3.0 0 ------- null}
+ -t 0.286680945139406 -s 1 -d 3 -p exp -e 40 -c 0 -i 0 -a 0 -x {2.0 3.0 0 ------- null}
- -t 0.286680945139406 -s 1 -d 3 -p exp -e 40 -c 0 -i 0 -a 0 -x {2.0 3.0 0 ------- null}
h -t 0.286680945139406 -s 1 -d 3 -p exp -e 40 -c 0 -i 0 -a 0 -x {2.0 3.0 -1 ------- null}
r -t 0.304880945139406 -s 1 -d 3 -p exp -e 40 -c 0 -i 0 -a 0 -x {2.0 3.0 0 ------- null}
+ -t 0.304880945139406 -s 3 -d 1 -p ack -e 40 -c 0 -i 1 -a 0 -x {3.0 2.0 0 ------- null}
- -t 0.304880945139406 -s 3 -d 1 -p ack -e 40 -c 0 -i 1 -a 0 -x {3.0 2.0 0 ------- null}
h -t 0.304880945139406 -s 3 -d 1 -p ack -e 40 -c 0 -i 1 -a 0 -x {3.0 2.0 -1 ------- null}
r -t 0.323080945139405 -s 3 -d 1 -p ack -e 40 -c 0 -i 1 -a 0 -x {3.0 2.0 0 ------- null}
+ -t 0.323080945139405 -s 1 -d 0 -p ack -e 40 -c 0 -i 1 -a 0 -x {3.0 2.0 0 ------- null}
- -t 0.323080945139405 -s 1 -d 0 -p ack -e 40 -c 0 -i 1 -a 0 -x {3.0 2.0 0 ------- null}
h -t 0.323080945139405 -s 1 -d 0 -p ack -e 40 -c 0 -i 1 -a 0 -x {3.0 2.0 -1 ------- null}
r -t 0.341280945139405 -s 1 -d 0 -p ack -e 40 -c 0 -i 1 -a 0 -x {3.0 2.0 0 ------- null}
+ -t 0.341280945139405 -s 0 -d 2 -p ack -e 40 -c 0 -i 1 -a 0 -x {3.0 2.0 0 ------- null}
- -t 0.341280945139405 -s 0 -d 2 -p ack -e 40 -c 0 -i 1 -a 0 -x {3.0 2.0 0 ------- null}
h -t 0.341280945139405 -s 0 -d 2 -p ack -e 40 -c 0 -i 1 -a 0 -x {3.0 2.0 -1 ------- null}
r -t 0.359480945139405 -s 0 -d 2 -p ack -e 40 -c 0 -i 1 -a 0 -x {3.0 2.0 0 ------- null}
+ -t 0.359480945139405 -s 2 -d 0 -p exp -e 1540 -c 0 -i 2 -a 0 -x {2.0 3.0 0 ------- null}
- -t 0.359480945139405 -s 2 -d 0 -p exp -e 1540 -c 0 -i 2 -a 0 -x {2.0 3.0 0 ------- null}
h -t 0.359480945139405 -s 2 -d 0 -p exp -e 1540 -c 0 -i 2 -a 0 -x {2.0 3.0 -1 ------- null}
+ -t 0.359480945139405 -s 2 -d 0 -p exp -e 1540 -c 0 -i 3 -a 0 -x {2.0 3.0 0 ------- null}
- -t 0.482680945139406 -s 2 -d 0 -p exp -e 1540 -c 0 -i 3 -a 0 -x {2.0 3.0 0 ------- null}
h -t 0.482680945139406 -s 2 -d 0 -p exp -e 1540 -c 0 -i 3 -a 0 -x {2.0 3.0 -1 ------- null}
r -t 0.497680945139405 -s 2 -d 0 -p exp -e 1540 -c 0 -i 2 -a 0 -x {2.0 3.0 0 ------- null}
+ -t 0.497680945139405 -s 0 -d 1 -p exp -e 1540 -c 0 -i 2 -a 0 -x {2.0 3.0 0 ------- null}
- -t 0.497680945139405 -s 0 -d 1 -p exp -e 1540 -c 0 -i 2 -a 0 -x {2.0 3.0 0 ------- null}
h -t 0.497680945139405 -s 0 -d 1 -p exp -e 1540 -c 0 -i 2 -a 0 -x {2.0 3.0 -1 ------- null}
r -t 0.620880945139406 -s 2 -d 0 -p exp -e 1540 -c 0 -i 3 -a 0 -x {2.0 3.0 0 ------- null}
+ -t 0.620880945139406 -s 0 -d 1 -p exp -e 1540 -c 0 -i 3 -a 0 -x {2.0 3.0 0 ------- null}
- -t 0.620880945139406 -s 0 -d 1 -p exp -e 1540 -c 0 -i 3 -a 0 -x {2.0 3.0 0 ------- null}
h -t 0.620880945139406 -s 0 -d 1 -p exp -e 1540 -c 0 -i 3 -a 0 -x {2.0 3.0 -1 ------- null}
r -t 0.635880945139405 -s 0 -d 1 -p exp -e 1540 -c 0 -i 2 -a 0 -x {2.0 3.0 0 ------- null}
+ -t 0.635880945139405 -s 1 -d 3 -p exp -e 1540 -c 0 -i 2 -a 0 -x {2.0 3.0 0 ------- null}
- -t 0.635880945139405 -s 1 -d 3 -p exp -e 1540 -c 0 -i 2 -a 0 -x {2.0 3.0 0 ------- null}
h -t 0.635880945139405 -s 1 -d 3 -p exp -e 1540 -c 0 -i 2 -a 0 -x {2.0 3.0 -1 ------- null}
+ -t 0.689480945139405 -s 2 -d 0 -p exp -e 1540 -c 0 -i 4 -a 0 -x {2.0 3.0 0 ---A--- null}
- -t 0.689480945139405 -s 2 -d 0 -p exp -e 1540 -c 0 -i 4 -a 0 -x {2.0 3.0 0 ---A--- null}
h -t 0.689480945139405 -s 2 -d 0 -p exp -e 1540 -c 0 -i 4 -a 0 -x {2.0 3.0 -1 ---A--- null}
r -t 0.759080945139405 -s 0 -d 1 -p exp -e 1540 -c 0 -i 3 -a 0 -x {2.0 3.0 0 ------- null}
+ -t 0.759080945139405 -s 1 -d 3 -p exp -e 1540 -c 0 -i 3 -a 0 -x {2.0 3.0 0 ------- null}
- -t 0.759080945139405 -s 1 -d 3 -p exp -e 1540 -c 0 -i 3 -a 0 -x {2.0 3.0 0 ------- null}
h -t 0.759080945139405 -s 1 -d 3 -p exp -e 1540 -c 0 -i 3 -a 0 -x {2.0 3.0 -1 ------- null}
r -t 0.774080945139405 -s 1 -d 3 -p exp -e 1540 -c 0 -i 2 -a 0 -x {2.0 3.0 0 ------- null}
+ -t 0.774080945139405 -s 3 -d 1 -p ack -e 40 -c 0 -i 5 -a 0 -x {3.0 2.0 1 ------- null}
- -t 0.774080945139405 -s 3 -d 1 -p ack -e 40 -c 0 -i 5 -a 0 -x {3.0 2.0 1 ------- null}
h -t 0.774080945139405 -s 3 -d 1 -p ack -e 40 -c 0 -i 5 -a 0 -x {3.0 2.0 -1 ------- null}
r -t 0.792280945139405 -s 3 -d 1 -p ack -e 40 -c 0 -i 5 -a 0 -x {3.0 2.0 1 ------- null}
+ -t 0.792280945139405 -s 1 -d 0 -p ack -e 40 -c 0 -i 5 -a 0 -x {3.0 2.0 1 ------- null}
- -t 0.792280945139405 -s 1 -d 0 -p ack -e 40 -c 0 -i 5 -a 0 -x {3.0 2.0 1 ------- null}
h -t 0.792280945139405 -s 1 -d 0 -p ack -e 40 -c 0 -i 5 -a 0 -x {3.0 2.0 -1 ------- null}
r -t 0.810480945139405 -s 1 -d 0 -p ack -e 40 -c 0 -i 5 -a 0 -x {3.0 2.0 1 ------- null}
+ -t 0.810480945139405 -s 0 -d 2 -p ack -e 40 -c 0 -i 5 -a 0 -x {3.0 2.0 1 ------- null}
- -t 0.810480945139405 -s 0 -d 2 -p ack -e 40 -c 0 -i 5 -a 0 -x {3.0 2.0 1 ------- null}
h -t 0.810480945139405 -s 0 -d 2 -p ack -e 40 -c 0 -i 5 -a 0 -x {3.0 2.0 -1 ------- null}
r -t 0.827680945139405 -s 2 -d 0 -p exp -e 1540 -c 0 -i 4 -a 0 -x {2.0 3.0 0 ---A--- null}
+ -t 0.827680945139405 -s 0 -d 1 -p exp -e 1540 -c 0 -i 4 -a 0 -x {2.0 3.0 0 ---A--- null}
- -t 0.827680945139405 -s 0 -d 1 -p exp -e 1540 -c 0 -i 4 -a 0 -x {2.0 3.0 0 ---A--- null}
h -t 0.827680945139405 -s 0 -d 1 -p exp -e 1540 -c 0 -i 4 -a 0 -x {2.0 3.0 -1 ---A--- null}
r -t 0.828680945139405 -s 0 -d 2 -p ack -e 40 -c 0 -i 5 -a 0 -x {3.0 2.0 1 ------- null}
+ -t 0.828680945139405 -s 2 -d 0 -p exp -e 1540 -c 0 -i 6 -a 0 -x {2.0 3.0 0 ------- null}
- -t 0.828680945139405 -s 2 -d 0 -p exp -e 1540 -c 0 -i 6 -a 0 -x {2.0 3.0 0 ------- null}
h -t 0.828680945139405 -s 2 -d 0 -p exp -e 1540 -c 0 -i 6 -a 0 -x {2.0 3.0 -1 ------- null}
+ -t 0.828680945139405 -s 2 -d 0 -p exp -e 1540 -c 0 -i 7 -a 0 -x {2.0 3.0 0 ------- null}
r -t 0.897280945139405 -s 1 -d 3 -p exp -e 1540 -c 0 -i 3 -a 0 -x {2.0 3.0 0 ------- null}
+ -t 0.897280945139405 -s 3 -d 1 -p ack -e 40 -c 0 -i 8 -a 0 -x {3.0 2.0 2 ------- null}
- -t 0.897280945139405 -s 3 -d 1 -p ack -e 40 -c 0 -i 8 -a 0 -x {3.0 2.0 2 ------- null}
h -t 0.897280945139405 -s 3 -d 1 -p ack -e 40 -c 0 -i 8 -a 0 -x {3.0 2.0 -1 ------- null}
r -t 0.915480945139405 -s 3 -d 1 -p ack -e 40 -c 0 -i 8 -a 0 -x {3.0 2.0 2 ------- null}
+ -t 0.915480945139405 -s 1 -d 0 -p ack -e 40 -c 0 -i 8 -a 0 -x {3.0 2.0 2 ------- null}
- -t 0.915480945139405 -s 1 -d 0 -p ack -e 40 -c 0 -i 8 -a 0 -x {3.0 2.0 2 ------- null}
h -t 0.915480945139405 -s 1 -d 0 -p ack -e 40 -c 0 -i 8 -a 0 -x {3.0 2.0 -1 ------- null}
r -t 0.933680945139405 -s 1 -d 0 -p ack -e 40 -c 0 -i 8 -a 0 -x {3.0 2.0 2 ------- null}
+ -t 0.933680945139405 -s 0 -d 2 -p ack -e 40 -c 0 -i 8 -a 0 -x {3.0 2.0 2 ------- null}
- -t 0.933680945139405 -s 0 -d 2 -p ack -e 40 -c 0 -i 8 -a 0 -x {3.0 2.0 2 ------- null}
h -t 0.933680945139405 -s 0 -d 2 -p ack -e 40 -c 0 -i 8 -a 0 -x {3.0 2.0 -1 ------- null}
- -t 0.951880945139405 -s 2 -d 0 -p exp -e 1540 -c 0 -i 7 -a 0 -x {2.0 3.0 0 ------- null}
h -t 0.951880945139405 -s 2 -d 0 -p exp -e 1540 -c 0 -i 7 -a 0 -x {2.0 3.0 -1 ------- null}
r -t 0.951880945139405 -s 0 -d 2 -p ack -e 40 -c 0 -i 8 -a 0 -x {3.0 2.0 2 ------- null}
+ -t 0.951880945139405 -s 2 -d 0 -p exp -e 1540 -c 0 -i 9 -a 0 -x {2.0 3.0 0 ------- null}
r -t 0.965880945139405 -s 0 -d 1 -p exp -e 1540 -c 0 -i 4 -a 0 -x {2.0 3.0 0 ---A--- null}
+ -t 0.965880945139405 -s 1 -d 3 -p exp -e 1540 -c 0 -i 4 -a 0 -x {2.0 3.0 0 ---A--- null}
- -t 0.965880945139405 -s 1 -d 3 -p exp -e 1540 -c 0 -i 4 -a 0 -x {2.0 3.0 0 ---A--- null}
h -t 0.965880945139405 -s 1 -d 3 -p exp -e 1540 -c 0 -i 4 -a 0 -x {2.0 3.0 -1 ---A--- null}
r -t 0.966880945139405 -s 2 -d 0 -p exp -e 1540 -c 0 -i 6 -a 0 -x {2.0 3.0 0 ------- null}
+ -t 0.966880945139405 -s 0 -d 1 -p exp -e 1540 -c 0 -i 6 -a 0 -x {2.0 3.0 0 ------- null}
- -t 0.966880945139405 -s 0 -d 1 -p exp -e 1540 -c 0 -i 6 -a 0 -x {2.0 3.0 0 ------- null}
h -t 0.966880945139405 -s 0 -d 1 -p exp -e 1540 -c 0 -i 6 -a 0 -x {2.0 3.0 -1 ------- null}
- -t 1.07508094513941 -s 2 -d 0 -p exp -e 1540 -c 0 -i 9 -a 0 -x {2.0 3.0 0 ------- null}
h -t 1.07508094513941 -s 2 -d 0 -p exp -e 1540 -c 0 -i 9 -a 0 -x {2.0 3.0 -1 ------- null}
r -t 1.09008094513941 -s 2 -d 0 -p exp -e 1540 -c 0 -i 7 -a 0 -x {2.0 3.0 0 ------- null}
+ -t 1.09008094513941 -s 0 -d 1 -p exp -e 1540 -c 0 -i 7 -a 0 -x {2.0 3.0 0 ------- null}
- -t 1.09008094513941 -s 0 -d 1 -p exp -e 1540 -c 0 -i 7 -a 0 -x {2.0 3.0 0 ------- null}
h -t 1.09008094513941 -s 0 -d 1 -p exp -e 1540 -c 0 -i 7 -a 0 -x {2.0 3.0 -1 ------- null}
r -t 1.10408094513941 -s 1 -d 3 -p exp -e 1540 -c 0 -i 4 -a 0 -x {2.0 3.0 0 ---A--- null}
+ -t 1.10408094513941 -s 3 -d 1 -p ack -e 40 -c 0 -i 10 -a 0 -x {3.0 2.0 2 ------- null}
- -t 1.10408094513941 -s 3 -d 1 -p ack -e 40 -c 0 -i 10 -a 0 -x {3.0 2.0 2 ------- null}
h -t 1.10408094513941 -s 3 -d 1 -p ack -e 40 -c 0 -i 10 -a 0 -x {3.0 2.0 -1 ------- null}
r -t 1.10508094513941 -s 0 -d 1 -p exp -e 1540 -c 0 -i 6 -a 0 -x {2.0 3.0 0 ------- null}
+ -t 1.10508094513941 -s 1 -d 3 -p exp -e 1540 -c 0 -i 6 -a 0 -x {2.0 3.0 0 ------- null}
- -t 1.10508094513941 -s 1 -d 3 -p exp -e 1540 -c 0 -i 6 -a 0 -x {2.0 3.0 0 ------- null}
h -t 1.10508094513941 -s 1 -d 3 -p exp -e 1540 -c 0 -i 6 -a 0 -x {2.0 3.0 -1 ------- null}
r -t 1.12228094513941 -s 3 -d 1 -p ack -e 40 -c 0 -i 10 -a 0 -x {3.0 2.0 2 ------- null}
+ -t 1.12228094513941 -s 1 -d 0 -p ack -e 40 -c 0 -i 10 -a 0 -x {3.0 2.0 2 ------- null}
- -t 1.12228094513941 -s 1 -d 0 -p ack -e 40 -c 0 -i 10 -a 0 -x {3.0 2.0 2 ------- null}
h -t 1.12228094513941 -s 1 -d 0 -p ack -e 40 -c 0 -i 10 -a 0 -x {3.0 2.0 -1 ------- null}
r -t 1.14048094513941 -s 1 -d 0 -p ack -e 40 -c 0 -i 10 -a 0 -x {3.0 2.0 2 ------- null}
+ -t 1.14048094513941 -s 0 -d 2 -p ack -e 40 -c 0 -i 10 -a 0 -x {3.0 2.0 2 ------- null}
- -t 1.14048094513941 -s 0 -d 2 -p ack -e 40 -c 0 -i 10 -a 0 -x {3.0 2.0 2 ------- null}
h -t 1.14048094513941 -s 0 -d 2 -p ack -e 40 -c 0 -i 10 -a 0 -x {3.0 2.0 -1 ------- null}
r -t 1.15868094513941 -s 0 -d 2 -p ack -e 40 -c 0 -i 10 -a 0 -x {3.0 2.0 2 ------- null}
+ -t 1.15868094513941 -s 2 -d 0 -p exp -e 1540 -c 0 -i 11 -a 0 -x {2.0 3.0 0 ------- null}
- -t 1.19828094513941 -s 2 -d 0 -p exp -e 1540 -c 0 -i 11 -a 0 -x {2.0 3.0 0 ------- null}
h -t 1.19828094513941 -s 2 -d 0 -p exp -e 1540 -c 0 -i 11 -a 0 -x {2.0 3.0 -1 ------- null}
r -t 1.21328094513941 -s 2 -d 0 -p exp -e 1540 -c 0 -i 9 -a 0 -x {2.0 3.0 0 ------- null}
+ -t 1.21328094513941 -s 0 -d 1 -p exp -e 1540 -c 0 -i 9 -a 0 -x {2.0 3.0 0 ------- null}
- -t 1.21328094513941 -s 0 -d 1 -p exp -e 1540 -c 0 -i 9 -a 0 -x {2.0 3.0 0 ------- null}
h -t 1.21328094513941 -s 0 -d 1 -p exp -e 1540 -c 0 -i 9 -a 0 -x {2.0 3.0 -1 ------- null}
r -t 1.22828094513941 -s 0 -d 1 -p exp -e 1540 -c 0 -i 7 -a 0 -x {2.0 3.0 0 ------- null}
+ -t 1.22828094513941 -s 1 -d 3 -p exp -e 1540 -c 0 -i 7 -a 0 -x {2.0 3.0 0 ------- null}
- -t 1.22828094513941 -s 1 -d 3 -p exp -e 1540 -c 0 -i 7 -a 0 -x {2.0 3.0 0 ------- null}
h -t 1.22828094513941 -s 1 -d 3 -p exp -e 1540 -c 0 -i 7 -a 0 -x {2.0 3.0 -1 ------- null}
r -t 1.24328094513941 -s 1 -d 3 -p exp -e 1540 -c 0 -i 6 -a 0 -x {2.0 3.0 0 ------- null}
+ -t 1.24328094513941 -s 3 -d 1 -p ack -e 40 -c 0 -i 12 -a 0 -x {3.0 2.0 2 ------- null}
- -t 1.24328094513941 -s 3 -d 1 -p ack -e 40 -c 0 -i 12 -a 0 -x {3.0 2.0 2 ------- null}
h -t 1.24328094513941 -s 3 -d 1 -p ack -e 40 -c 0 -i 12 -a 0 -x {3.0 2.0 -1 ------- null}
r -t 1.26148094513941 -s 3 -d 1 -p ack -e 40 -c 0 -i 12 -a 0 -x {3.0 2.0 2 ------- null}
+ -t 1.26148094513941 -s 1 -d 0 -p ack -e 40 -c 0 -i 12 -a 0 -x {3.0 2.0 2 ------- null}
- -t 1.26148094513941 -s 1 -d 0 -p ack -e 40 -c 0 -i 12 -a 0 -x {3.0 2.0 2 ------- null}
h -t 1.26148094513941 -s 1 -d 0 -p ack -e 40 -c 0 -i 12 -a 0 -x {3.0 2.0 -1 ------- null}
r -t 1.27968094513941 -s 1 -d 0 -p ack -e 40 -c 0 -i 12 -a 0 -x {3.0 2.0 2 ------- null}
+ -t 1.27968094513941 -s 0 -d 2 -p ack -e 40 -c 0 -i 12 -a 0 -x {3.0 2.0 2 ------- null}
- -t 1.27968094513941 -s 0 -d 2 -p ack -e 40 -c 0 -i 12 -a 0 -x {3.0 2.0 2 ------- null}
h -t 1.27968094513941 -s 0 -d 2 -p ack -e 40 -c 0 -i 12 -a 0 -x {3.0 2.0 -1 ------- null}
r -t 1.29788094513941 -s 0 -d 2 -p ack -e 40 -c 0 -i 12 -a 0 -x {3.0 2.0 2 ------- null}
+ -t 1.29788094513941 -s 2 -d 0 -p exp -e 1540 -c 0 -i 13 -a 0 -x {2.0 3.0 0 ------- null}
- -t 1.32148094513941 -s 2 -d 0 -p exp -e 1540 -c 0 -i 13 -a 0 -x {2.0 3.0 0 ------- null}
h -t 1.32148094513941 -s 2 -d 0 -p exp -e 1540 -c 0 -i 13 -a 0 -x {2.0 3.0 -1 ------- null}
r -t 1.33648094513941 -s 2 -d 0 -p exp -e 1540 -c 0 -i 11 -a 0 -x {2.0 3.0 0 ------- null}
+ -t 1.33648094513941 -s 0 -d 1 -p exp -e 1540 -c 0 -i 11 -a 0 -x {2.0 3.0 0 ------- null}
- -t 1.33648094513941 -s 0 -d 1 -p exp -e 1540 -c 0 -i 11 -a 0 -x {2.0 3.0 0 ------- null}
h -t 1.33648094513941 -s 0 -d 1 -p exp -e 1540 -c 0 -i 11 -a 0 -x {2.0 3.0 -1 ------- null}
r -t 1.35148094513941 -s 0 -d 1 -p exp -e 1540 -c 0 -i 9 -a 0 -x {2.0 3.0 0 ------- null}
+ -t 1.35148094513941 -s 1 -d 3 -p exp -e 1540 -c 0 -i 9 -a 0 -x {2.0 3.0 0 ------- null}
- -t 1.35148094513941 -s 1 -d 3 -p exp -e 1540 -c 0 -i 9 -a 0 -x {2.0 3.0 0 ------- null}
h -t 1.35148094513941 -s 1 -d 3 -p exp -e 1540 -c 0 -i 9 -a 0 -x {2.0 3.0 -1 ------- null}
r -t 1.36648094513941 -s 1 -d 3 -p exp -e 1540 -c 0 -i 7 -a 0 -x {2.0 3.0 0 ------- null}
+ -t 1.36648094513941 -s 3 -d 1 -p ack -e 40 -c 0 -i 14 -a 0 -x {3.0 2.0 3 ------- null}
- -t 1.36648094513941 -s 3 -d 1 -p ack -e 40 -c 0 -i 14 -a 0 -x {3.0 2.0 3 ------- null}
h -t 1.36648094513941 -s 3 -d 1 -p ack -e 40 -c 0 -i 14 -a 0 -x {3.0 2.0 -1 ------- null}
r -t 1.38468094513941 -s 3 -d 1 -p ack -e 40 -c 0 -i 14 -a 0 -x {3.0 2.0 3 ------- null}
+ -t 1.38468094513941 -s 1 -d 0 -p ack -e 40 -c 0 -i 14 -a 0 -x {3.0 2.0 3 ------- null}
- -t 1.38468094513941 -s 1 -d 0 -p ack -e 40 -c 0 -i 14 -a 0 -x {3.0 2.0 3 ------- null}
h -t 1.38468094513941 -s 1 -d 0 -p ack -e 40 -c 0 -i 14 -a 0 -x {3.0 2.0 -1 ------- null}
r -t 1.40288094513941 -s 1 -d 0 -p ack -e 40 -c 0 -i 14 -a 0 -x {3.0 2.0 3 ------- null}
+ -t 1.40288094513941 -s 0 -d 2 -p ack -e 40 -c 0 -i 14 -a 0 -x {3.0 2.0 3 ------- null}
- -t 1.40288094513941 -s 0 -d 2 -p ack -e 40 -c 0 -i 14 -a 0 -x {3.0 2.0 3 ------- null}
h -t 1.40288094513941 -s 0 -d 2 -p ack -e 40 -c 0 -i 14 -a 0 -x {3.0 2.0 -1 ------- null}
r -t 1.42108094513941 -s 0 -d 2 -p ack -e 40 -c 0 -i 14 -a 0 -x {3.0 2.0 3 ------- null}
r -t 1.45968094513941 -s 2 -d 0 -p exp -e 1540 -c 0 -i 13 -a 0 -x {2.0 3.0 0 ------- null}
+ -t 1.45968094513941 -s 0 -d 1 -p exp -e 1540 -c 0 -i 13 -a 0 -x {2.0 3.0 0 ------- null}
- -t 1.45968094513941 -s 0 -d 1 -p exp -e 1540 -c 0 -i 13 -a 0 -x {2.0 3.0 0 ------- null}
h -t 1.45968094513941 -s 0 -d 1 -p exp -e 1540 -c 0 -i 13 -a 0 -x {2.0 3.0 -1 ------- null}
r -t 1.47468094513941 -s 0 -d 1 -p exp -e 1540 -c 0 -i 11 -a 0 -x {2.0 3.0 0 ------- null}
+ -t 1.47468094513941 -s 1 -d 3 -p exp -e 1540 -c 0 -i 11 -a 0 -x {2.0 3.0 0 ------- null}
- -t 1.47468094513941 -s 1 -d 3 -p exp -e 1540 -c 0 -i 11 -a 0 -x {2.0 3.0 0 ------- null}
h -t 1.47468094513941 -s 1 -d 3 -p exp -e 1540 -c 0 -i 11 -a 0 -x {2.0 3.0 -1 ------- null}
r -t 1.48968094513941 -s 1 -d 3 -p exp -e 1540 -c 0 -i 9 -a 0 -x {2.0 3.0 0 ------- null}
+ -t 1.48968094513941 -s 3 -d 1 -p ack -e 40 -c 0 -i 15 -a 0 -x {3.0 2.0 4 ------- null}
- -t 1.48968094513941 -s 3 -d 1 -p ack -e 40 -c 0 -i 15 -a 0 -x {3.0 2.0 4 ------- null}
h -t 1.48968094513941 -s 3 -d 1 -p ack -e 40 -c 0 -i 15 -a 0 -x {3.0 2.0 -1 ------- null}
r -t 1.50788094513941 -s 3 -d 1 -p ack -e 40 -c 0 -i 15 -a 0 -x {3.0 2.0 4 ------- null}
+ -t 1.50788094513941 -s 1 -d 0 -p ack -e 40 -c 0 -i 15 -a 0 -x {3.0 2.0 4 ------- null}
- -t 1.50788094513941 -s 1 -d 0 -p ack -e 40 -c 0 -i 15 -a 0 -x {3.0 2.0 4 ------- null}
h -t 1.50788094513941 -s 1 -d 0 -p ack -e 40 -c 0 -i 15 -a 0 -x {3.0 2.0 -1 ------- null}
r -t 1.52608094513941 -s 1 -d 0 -p ack -e 40 -c 0 -i 15 -a 0 -x {3.0 2.0 4 ------- null}
+ -t 1.52608094513941 -s 0 -d 2 -p ack -e 40 -c 0 -i 15 -a 0 -x {3.0 2.0 4 ------- null}
- -t 1.52608094513941 -s 0 -d 2 -p ack -e 40 -c 0 -i 15 -a 0 -x {3.0 2.0 4 ------- null}
h -t 1.52608094513941 -s 0 -d 2 -p ack -e 40 -c 0 -i 15 -a 0 -x {3.0 2.0 -1 ------- null}
r -t 1.54428094513941 -s 0 -d 2 -p ack -e 40 -c 0 -i 15 -a 0 -x {3.0 2.0 4 ------- null}
+ -t 1.54428094513941 -s 2 -d 0 -p exp -e 1540 -c 0 -i 16 -a 0 -x {2.0 3.0 0 ------- null}
- -t 1.54428094513941 -s 2 -d 0 -p exp -e 1540 -c 0 -i 16 -a 0 -x {2.0 3.0 0 ------- null}
h -t 1.54428094513941 -s 2 -d 0 -p exp -e 1540 -c 0 -i 16 -a 0 -x {2.0 3.0 -1 ------- null}
r -t 1.59788094513941 -s 0 -d 1 -p exp -e 1540 -c 0 -i 13 -a 0 -x {2.0 3.0 0 ------- null}
+ -t 1.59788094513941 -s 1 -d 3 -p exp -e 1540 -c 0 -i 13 -a 0 -x {2.0 3.0 0 ------- null}
- -t 1.59788094513941 -s 1 -d 3 -p exp -e 1540 -c 0 -i 13 -a 0 -x {2.0 3.0 0 ------- null}
h -t 1.59788094513941 -s 1 -d 3 -p exp -e 1540 -c 0 -i 13 -a 0 -x {2.0 3.0 -1 ------- null}
r -t 1.61288094513941 -s 1 -d 3 -p exp -e 1540 -c 0 -i 11 -a 0 -x {2.0 3.0 0 ------- null}
+ -t 1.61288094513941 -s 3 -d 1 -p ack -e 40 -c 0 -i 17 -a 0 -x {3.0 2.0 5 ------- null}
- -t 1.61288094513941 -s 3 -d 1 -p ack -e 40 -c 0 -i 17 -a 0 -x {3.0 2.0 5 ------- null}
h -t 1.61288094513941 -s 3 -d 1 -p ack -e 40 -c 0 -i 17 -a 0 -x {3.0 2.0 -1 ------- null}
r -t 1.63108094513941 -s 3 -d 1 -p ack -e 40 -c 0 -i 17 -a 0 -x {3.0 2.0 5 ------- null}
+ -t 1.63108094513941 -s 1 -d 0 -p ack -e 40 -c 0 -i 17 -a 0 -x {3.0 2.0 5 ------- null}
- -t 1.63108094513941 -s 1 -d 0 -p ack -e 40 -c 0 -i 17 -a 0 -x {3.0 2.0 5 ------- null}
h -t 1.63108094513941 -s 1 -d 0 -p ack -e 40 -c 0 -i 17 -a 0 -x {3.0 2.0 -1 ------- null}
r -t 1.64928094513941 -s 1 -d 0 -p ack -e 40 -c 0 -i 17 -a 0 -x {3.0 2.0 5 ------- null}
+ -t 1.64928094513941 -s 0 -d 2 -p ack -e 40 -c 0 -i 17 -a 0 -x {3.0 2.0 5 ------- null}
- -t 1.64928094513941 -s 0 -d 2 -p ack -e 40 -c 0 -i 17 -a 0 -x {3.0 2.0 5 ------- null}
h -t 1.64928094513941 -s 0 -d 2 -p ack -e 40 -c 0 -i 17 -a 0 -x {3.0 2.0 -1 ------- null}
r -t 1.66748094513941 -s 0 -d 2 -p ack -e 40 -c 0 -i 17 -a 0 -x {3.0 2.0 5 ------- null}
+ -t 1.66748094513941 -s 2 -d 0 -p exp -e 1540 -c 0 -i 18 -a 0 -x {2.0 3.0 0 ------- null}
- -t 1.66748094513941 -s 2 -d 0 -p exp -e 1540 -c 0 -i 18 -a 0 -x {2.0 3.0 0 ------- null}
h -t 1.66748094513941 -s 2 -d 0 -p exp -e 1540 -c 0 -i 18 -a 0 -x {2.0 3.0 -1 ------- null}
r -t 1.68248094513941 -s 2 -d 0 -p exp -e 1540 -c 0 -i 16 -a 0 -x {2.0 3.0 0 ------- null}
+ -t 1.68248094513941 -s 0 -d 1 -p exp -e 1540 -c 0 -i 16 -a 0 -x {2.0 3.0 0 ------- null}
- -t 1.68248094513941 -s 0 -d 1 -p exp -e 1540 -c 0 -i 16 -a 0 -x {2.0 3.0 0 ------- null}
h -t 1.68248094513941 -s 0 -d 1 -p exp -e 1540 -c 0 -i 16 -a 0 -x {2.0 3.0 -1 ------- null}
r -t 1.73608094513941 -s 1 -d 3 -p exp -e 1540 -c 0 -i 13 -a 0 -x {2.0 3.0 0 ------- null}
+ -t 1.73608094513941 -s 3 -d 1 -p ack -e 40 -c 0 -i 19 -a 0 -x {3.0 2.0 6 ------- null}
- -t 1.73608094513941 -s 3 -d 1 -p ack -e 40 -c 0 -i 19 -a 0 -x {3.0 2.0 6 ------- null}
h -t 1.73608094513941 -s 3 -d 1 -p ack -e 40 -c 0 -i 19 -a 0 -x {3.0 2.0 -1 ------- null}
r -t 1.75428094513941 -s 3 -d 1 -p ack -e 40 -c 0 -i 19 -a 0 -x {3.0 2.0 6 ------- null}
+ -t 1.75428094513941 -s 1 -d 0 -p ack -e 40 -c 0 -i 19 -a 0 -x {3.0 2.0 6 ------- null}
- -t 1.75428094513941 -s 1 -d 0 -p ack -e 40 -c 0 -i 19 -a 0 -x {3.0 2.0 6 ------- null}
h -t 1.75428094513941 -s 1 -d 0 -p ack -e 40 -c 0 -i 19 -a 0 -x {3.0 2.0 -1 ------- null}
r -t 1.77248094513941 -s 1 -d 0 -p ack -e 40 -c 0 -i 19 -a 0 -x {3.0 2.0 6 ------- null}
+ -t 1.77248094513941 -s 0 -d 2 -p ack -e 40 -c 0 -i 19 -a 0 -x {3.0 2.0 6 ------- null}
- -t 1.77248094513941 -s 0 -d 2 -p ack -e 40 -c 0 -i 19 -a 0 -x {3.0 2.0 6 ------- null}
h -t 1.77248094513941 -s 0 -d 2 -p ack -e 40 -c 0 -i 19 -a 0 -x {3.0 2.0 -1 ------- null}
r -t 1.79068094513941 -s 0 -d 2 -p ack -e 40 -c 0 -i 19 -a 0 -x {3.0 2.0 6 ------- null}
+ -t 1.79068094513941 -s 2 -d 0 -p exp -e 1540 -c 0 -i 20 -a 0 -x {2.0 3.0 0 ------- null}
- -t 1.79068094513941 -s 2 -d 0 -p exp -e 1540 -c 0 -i 20 -a 0 -x {2.0 3.0 0 ------- null}
h -t 1.79068094513941 -s 2 -d 0 -p exp -e 1540 -c 0 -i 20 -a 0 -x {2.0 3.0 -1 ------- null}
r -t 1.80568094513941 -s 2 -d 0 -p exp -e 1540 -c 0 -i 18 -a 0 -x {2.0 3.0 0 ------- null}
+ -t 1.80568094513941 -s 0 -d 1 -p exp -e 1540 -c 0 -i 18 -a 0 -x {2.0 3.0 0 ------- null}
- -t 1.80568094513941 -s 0 -d 1 -p exp -e 1540 -c 0 -i 18 -a 0 -x {2.0 3.0 0 ------- null}
h -t 1.80568094513941 -s 0 -d 1 -p exp -e 1540 -c 0 -i 18 -a 0 -x {2.0 3.0 -1 ------- null}
r -t 1.82068094513941 -s 0 -d 1 -p exp -e 1540 -c 0 -i 16 -a 0 -x {2.0 3.0 0 ------- null}
+ -t 1.82068094513941 -s 1 -d 3 -p exp -e 1540 -c 0 -i 16 -a 0 -x {2.0 3.0 0 ------- null}
- -t 1.82068094513941 -s 1 -d 3 -p exp -e 1540 -c 0 -i 16 -a 0 -x {2.0 3.0 0 ------- null}
h -t 1.82068094513941 -s 1 -d 3 -p exp -e 1540 -c 0 -i 16 -a 0 -x {2.0 3.0 -1 ------- null}
r -t 1.92888094513941 -s 2 -d 0 -p exp -e 1540 -c 0 -i 20 -a 0 -x {2.0 3.0 0 ------- null}
+ -t 1.92888094513941 -s 0 -d 1 -p exp -e 1540 -c 0 -i 20 -a 0 -x {2.0 3.0 0 ------- null}
- -t 1.92888094513941 -s 0 -d 1 -p exp -e 1540 -c 0 -i 20 -a 0 -x {2.0 3.0 0 ------- null}
h -t 1.92888094513941 -s 0 -d 1 -p exp -e 1540 -c 0 -i 20 -a 0 -x {2.0 3.0 -1 ------- null}
r -t 1.94388094513941 -s 0 -d 1 -p exp -e 1540 -c 0 -i 18 -a 0 -x {2.0 3.0 0 ------- null}
+ -t 1.94388094513941 -s 1 -d 3 -p exp -e 1540 -c 0 -i 18 -a 0 -x {2.0 3.0 0 ------- null}
- -t 1.94388094513941 -s 1 -d 3 -p exp -e 1540 -c 0 -i 18 -a 0 -x {2.0 3.0 0 ------- null}
h -t 1.94388094513941 -s 1 -d 3 -p exp -e 1540 -c 0 -i 18 -a 0 -x {2.0 3.0 -1 ------- null}
r -t 1.95888094513941 -s 1 -d 3 -p exp -e 1540 -c 0 -i 16 -a 0 -x {2.0 3.0 0 ------- null}
+ -t 1.95888094513941 -s 3 -d 1 -p ack -e 40 -c 0 -i 21 -a 0 -x {3.0 2.0 7 ------- null}
- -t 1.95888094513941 -s 3 -d 1 -p ack -e 40 -c 0 -i 21 -a 0 -x {3.0 2.0 7 ------- null}
h -t 1.95888094513941 -s 3 -d 1 -p ack -e 40 -c 0 -i 21 -a 0 -x {3.0 2.0 -1 ------- null}
r -t 1.97708094513941 -s 3 -d 1 -p ack -e 40 -c 0 -i 21 -a 0 -x {3.0 2.0 7 ------- null}
+ -t 1.97708094513941 -s 1 -d 0 -p ack -e 40 -c 0 -i 21 -a 0 -x {3.0 2.0 7 ------- null}
- -t 1.97708094513941 -s 1 -d 0 -p ack -e 40 -c 0 -i 21 -a 0 -x {3.0 2.0 7 ------- null}
h -t 1.97708094513941 -s 1 -d 0 -p ack -e 40 -c 0 -i 21 -a 0 -x {3.0 2.0 -1 ------- null}
r -t 1.99528094513941 -s 1 -d 0 -p ack -e 40 -c 0 -i 21 -a 0 -x {3.0 2.0 7 ------- null}
+ -t 1.99528094513941 -s 0 -d 2 -p ack -e 40 -c 0 -i 21 -a 0 -x {3.0 2.0 7 ------- null}
- -t 1.99528094513941 -s 0 -d 2 -p ack -e 40 -c 0 -i 21 -a 0 -x {3.0 2.0 7 ------- null}
h -t 1.99528094513941 -s 0 -d 2 -p ack -e 40 -c 0 -i 21 -a 0 -x {3.0 2.0 -1 ------- null}
r -t 2.01348094513941 -s 0 -d 2 -p ack -e 40 -c 0 -i 21 -a 0 -x {3.0 2.0 7 ------- null}
+ -t 2.01348094513941 -s 2 -d 0 -p exp -e 1540 -c 0 -i 22 -a 0 -x {2.0 3.0 0 ------- null}
- -t 2.01348094513941 -s 2 -d 0 -p exp -e 1540 -c 0 -i 22 -a 0 -x {2.0 3.0 0 ------- null}
h -t 2.01348094513941 -s 2 -d 0 -p exp -e 1540 -c 0 -i 22 -a 0 -x {2.0 3.0 -1 ------- null}
+ -t 2.01348094513941 -s 2 -d 0 -p exp -e 1540 -c 0 -i 23 -a 0 -x {2.0 3.0 0 ------- null}
r -t 2.06708094513941 -s 0 -d 1 -p exp -e 1540 -c 0 -i 20 -a 0 -x {2.0 3.0 0 ------- null}
+ -t 2.06708094513941 -s 1 -d 3 -p exp -e 1540 -c 0 -i 20 -a 0 -x {2.0 3.0 0 ------- null}
- -t 2.06708094513941 -s 1 -d 3 -p exp -e 1540 -c 0 -i 20 -a 0 -x {2.0 3.0 0 ------- null}
h -t 2.06708094513941 -s 1 -d 3 -p exp -e 1540 -c 0 -i 20 -a 0 -x {2.0 3.0 -1 ------- null}
r -t 2.08208094513941 -s 1 -d 3 -p exp -e 1540 -c 0 -i 18 -a 0 -x {2.0 3.0 0 ------- null}
+ -t 2.08208094513941 -s 3 -d 1 -p ack -e 40 -c 0 -i 24 -a 0 -x {3.0 2.0 8 ------- null}
- -t 2.08208094513941 -s 3 -d 1 -p ack -e 40 -c 0 -i 24 -a 0 -x {3.0 2.0 8 ------- null}
h -t 2.08208094513941 -s 3 -d 1 -p ack -e 40 -c 0 -i 24 -a 0 -x {3.0 2.0 -1 ------- null}
r -t 2.10028094513941 -s 3 -d 1 -p ack -e 40 -c 0 -i 24 -a 0 -x {3.0 2.0 8 ------- null}
+ -t 2.10028094513941 -s 1 -d 0 -p ack -e 40 -c 0 -i 24 -a 0 -x {3.0 2.0 8 ------- null}
- -t 2.10028094513941 -s 1 -d 0 -p ack -e 40 -c 0 -i 24 -a 0 -x {3.0 2.0 8 ------- null}
h -t 2.10028094513941 -s 1 -d 0 -p ack -e 40 -c 0 -i 24 -a 0 -x {3.0 2.0 -1 ------- null}
r -t 2.11848094513941 -s 1 -d 0 -p ack -e 40 -c 0 -i 24 -a 0 -x {3.0 2.0 8 ------- null}
+ -t 2.11848094513941 -s 0 -d 2 -p ack -e 40 -c 0 -i 24 -a 0 -x {3.0 2.0 8 ------- null}
- -t 2.11848094513941 -s 0 -d 2 -p ack -e 40 -c 0 -i 24 -a 0 -x {3.0 2.0 8 ------- null}
h -t 2.11848094513941 -s 0 -d 2 -p ack -e 40 -c 0 -i 24 -a 0 -x {3.0 2.0 -1 ------- null}
- -t 2.13668094513941 -s 2 -d 0 -p exp -e 1540 -c 0 -i 23 -a 0 -x {2.0 3.0 0 ------- null}
h -t 2.13668094513941 -s 2 -d 0 -p exp -e 1540 -c 0 -i 23 -a 0 -x {2.0 3.0 -1 ------- null}
r -t 2.13668094513941 -s 0 -d 2 -p ack -e 40 -c 0 -i 24 -a 0 -x {3.0 2.0 8 ------- null}
+ -t 2.13668094513941 -s 2 -d 0 -p exp -e 1540 -c 0 -i 25 -a 0 -x {2.0 3.0 0 ------- null}
r -t 2.15168094513941 -s 2 -d 0 -p exp -e 1540 -c 0 -i 22 -a 0 -x {2.0 3.0 0 ------- null}
+ -t 2.15168094513941 -s 0 -d 1 -p exp -e 1540 -c 0 -i 22 -a 0 -x {2.0 3.0 0 ------- null}
- -t 2.15168094513941 -s 0 -d 1 -p exp -e 1540 -c 0 -i 22 -a 0 -x {2.0 3.0 0 ------- null}
h -t 2.15168094513941 -s 0 -d 1 -p exp -e 1540 -c 0 -i 22 -a 0 -x {2.0 3.0 -1 ------- null}
r -t 2.20528094513941 -s 1 -d 3 -p exp -e 1540 -c 0 -i 20 -a 0 -x {2.0 3.0 0 ------- null}
+ -t 2.20528094513941 -s 3 -d 1 -p ack -e 40 -c 0 -i 26 -a 0 -x {3.0 2.0 9 ------- null}
- -t 2.20528094513941 -s 3 -d 1 -p ack -e 40 -c 0 -i 26 -a 0 -x {3.0 2.0 9 ------- null}
h -t 2.20528094513941 -s 3 -d 1 -p ack -e 40 -c 0 -i 26 -a 0 -x {3.0 2.0 -1 ------- null}
r -t 2.22348094513941 -s 3 -d 1 -p ack -e 40 -c 0 -i 26 -a 0 -x {3.0 2.0 9 ------- null}
+ -t 2.22348094513941 -s 1 -d 0 -p ack -e 40 -c 0 -i 26 -a 0 -x {3.0 2.0 9 ------- null}
- -t 2.22348094513941 -s 1 -d 0 -p ack -e 40 -c 0 -i 26 -a 0 -x {3.0 2.0 9 ------- null}
h -t 2.22348094513941 -s 1 -d 0 -p ack -e 40 -c 0 -i 26 -a 0 -x {3.0 2.0 -1 ------- null}
r -t 2.24168094513941 -s 1 -d 0 -p ack -e 40 -c 0 -i 26 -a 0 -x {3.0 2.0 9 ------- null}
+ -t 2.24168094513941 -s 0 -d 2 -p ack -e 40 -c 0 -i 26 -a 0 -x {3.0 2.0 9 ------- null}
- -t 2.24168094513941 -s 0 -d 2 -p ack -e 40 -c 0 -i 26 -a 0 -x {3.0 2.0 9 ------- null}
h -t 2.24168094513941 -s 0 -d 2 -p ack -e 40 -c 0 -i 26 -a 0 -x {3.0 2.0 -1 ------- null}
- -t 2.25988094513941 -s 2 -d 0 -p exp -e 1540 -c 0 -i 25 -a 0 -x {2.0 3.0 0 ------- null}
h -t 2.25988094513941 -s 2 -d 0 -p exp -e 1540 -c 0 -i 25 -a 0 -x {2.0 3.0 -1 ------- null}
r -t 2.25988094513941 -s 0 -d 2 -p ack -e 40 -c 0 -i 26 -a 0 -x {3.0 2.0 9 ------- null}
+ -t 2.25988094513941 -s 2 -d 0 -p exp -e 1540 -c 0 -i 27 -a 0 -x {2.0 3.0 0 ------- null}
r -t 2.27488094513941 -s 2 -d 0 -p exp -e 1540 -c 0 -i 23 -a 0 -x {2.0 3.0 0 ------- null}
+ -t 2.27488094513941 -s 0 -d 1 -p exp -e 1540 -c 0 -i 23 -a 0 -x {2.0 3.0 0 ------- null}
- -t 2.27488094513941 -s 0 -d 1 -p exp -e 1540 -c 0 -i 23 -a 0 -x {2.0 3.0 0 ------- null}
h -t 2.27488094513941 -s 0 -d 1 -p exp -e 1540 -c 0 -i 23 -a 0 -x {2.0 3.0 -1 ------- null}
r -t 2.28988094513941 -s 0 -d 1 -p exp -e 1540 -c 0 -i 22 -a 0 -x {2.0 3.0 0 ------- null}
+ -t 2.28988094513941 -s 1 -d 3 -p exp -e 1540 -c 0 -i 22 -a 0 -x {2.0 3.0 0 ------- null}
- -t 2.28988094513941 -s 1 -d 3 -p exp -e 1540 -c 0 -i 22 -a 0 -x {2.0 3.0 0 ------- null}
h -t 2.28988094513941 -s 1 -d 3 -p exp -e 1540 -c 0 -i 22 -a 0 -x {2.0 3.0 -1 ------- null}
- -t 2.38308094513941 -s 2 -d 0 -p exp -e 1540 -c 0 -i 27 -a 0 -x {2.0 3.0 0 ------- null}
h -t 2.38308094513941 -s 2 -d 0 -p exp -e 1540 -c 0 -i 27 -a 0 -x {2.0 3.0 -1 ------- null}
r -t 2.39808094513941 -s 2 -d 0 -p exp -e 1540 -c 0 -i 25 -a 0 -x {2.0 3.0 0 ------- null}
+ -t 2.39808094513941 -s 0 -d 1 -p exp -e 1540 -c 0 -i 25 -a 0 -x {2.0 3.0 0 ------- null}
- -t 2.39808094513941 -s 0 -d 1 -p exp -e 1540 -c 0 -i 25 -a 0 -x {2.0 3.0 0 ------- null}
h -t 2.39808094513941 -s 0 -d 1 -p exp -e 1540 -c 0 -i 25 -a 0 -x {2.0 3.0 -1 ------- null}
r -t 2.41308094513941 -s 0 -d 1 -p exp -e 1540 -c 0 -i 23 -a 0 -x {2.0 3.0 0 ------- null}
+ -t 2.41308094513941 -s 1 -d 3 -p exp -e 1540 -c 0 -i 23 -a 0 -x {2.0 3.0 0 ------- null}
- -t 2.41308094513941 -s 1 -d 3 -p exp -e 1540 -c 0 -i 23 -a 0 -x {2.0 3.0 0 ------- null}