V -t * -v 1.0a5 -a 0
A -t * -n 1 -p 0 -o 0x7fffffff -c 30 -a 1
A -t * -h 1 -m 1073741823 -s 0
n -t * -a 0 -s 0 -S UP -v circle -c black -i black
n -t * -a 1 -s 1 -S UP -v circle -c black -i black
n -t * -a 2 -s 2 -S UP -v circle -c black -i black
n -t * -a 3 -s 3 -S UP -v circle -c black -i black
n -t * -a 4 -s 4 -S UP -v circle -c black -i black
n -t * -a 5 -s 5 -S UP -v circle -c black -i black
n -t * -a 6 -s 6 -S UP -v circle -c black -i black
n -t * -a 7 -s 7 -S UP -v circle -c black -i black
n -t * -a 8 -s 8 -S UP -v circle -c black -i black
n -t * -a 9 -s 9 -S UP -v circle -c black -i black
n -t * -a 10 -s 10 -S UP -v circle -c black -i black
n -t * -a 11 -s 11 -S UP -v circle -c black -i black
n -t * -a 12 -s 12 -S UP -v circle -c black -i black
n -t * -a 13 -s 13 -S UP -v circle -c black -i black
l -t * -s 0 -d 1 -S UP -r 100000 -D 0.014999999999999999 -c black
l -t * -s 2 -d 0 -S UP -r 100000 -D 0.014999999999999999 -c black
l -t * -s 3 -d 1 -S UP -r 100000 -D 0.014999999999999999 -c black
l -t * -s 4 -d 0 -S UP -r 100000 -D 0.014999999999999999 -c black
l -t * -s 5 -d 1 -S UP -r 100000 -D 0.014999999999999999 -c black
l -t * -s 6 -d 0 -S UP -r 100000 -D 0.014999999999999999 -c black
l -t * -s 7 -d 1 -S UP -r 100000 -D 0.014999999999999999 -c black
l -t * -s 8 -d 0 -S UP -r 100000 -D 0.014999999999999999 -c black
l -t * -s 9 -d 1 -S UP -r 100000 -D 0.014999999999999999 -c black
l -t * -s 10 -d 0 -S UP -r 100000 -D 0.014999999999999999 -c black
l -t * -s 11 -d 1 -S UP -r 100000 -D 0.014999999999999999 -c black
l -t * -s 12 -d 0 -S UP -r 100000 -D 0.014999999999999999 -c black
l -t * -s 13 -d 1 -S UP -r 100000 -D 0.014999999999999999 -c black
+ -t 1.601922170149 -s 2 -d 0 -p exp -e 40 -c 0 -i 0 -a 0 -x {2.0 3.0 0 ------- null}
- -t 1.601922170149 -s 2 -d 0 -p exp -e 40 -c 0 -i 0 -a 0 -x {2.0 3.0 0 ------- null}
h -t 1.601922170149 -s 2 -d 0 -p exp -e 40 -c 0 -i 0 -a 0 -x {2.0 3.0 -1 ------- null}
r -t 1.620122170149 -s 2 -d 0 -p exp -e 40 -c 0 -i 0 -a 0 -x {2.0 3.0 0 ------- null}
+ -t 1.620122170149 -s 0 -d 1 -p exp -e 40 -c 0 -i 0 -a 0 -x {2.0 3.0 0 ------- null}
- -t 1.620122170149 -s 0 -d 1 -p exp -e 40 -c 0 -i 0 -a 0 -x {2.0 3.0 0 ------- null}
h -t 1.620122170149 -s 0 -d 1 -p exp -e 40 -c 0 -i 0 -a 0 -x {2.0 3.0 -1 ------- null}
r -t 1.638322170149 -s 0 -d 1 -p exp -e 40 -c 0 -i 0 -a 0 -x {2.0 3.0 0 ------- null}
+ -t 1.638322170149 -s 1 -d 3 -p exp -e 40 -c 0 -i 0 -a 0 -x {2.0 3.0 0 ------- null}
- -t 1.638322170149 -s 1 -d 3 -p exp -e 40 -c 0 -i 0 -a 0 -x {2.0 3.0 0 ------- null}
h -t 1.638322170149 -s 1 -d 3 -p exp -e 40 -c 0 -i 0 -a 0 -x {2.0 3.0 -1 ------- null}
r -t 1.656522170149 -s 1 -d 3 -p exp -e 40 -c 0 -i 0 -a 0 -x {2.0 3.0 0 ------- null}
+ -t 1.656522170149 -s 3 -d 1 -p ack -e 40 -c 0 -i 1 -a 0 -x {3.0 2.0 0 ------- null}
- -t 1.656522170149 -s 3 -d 1 -p ack -e 40 -c 0 -i 1 -a 0 -x {3.0 2.0 0 ------- null}
h -t 1.656522170149 -s 3 -d 1 -p ack -e 40 -c 0 -i 1 -a 0 -x {3.0 2.0 -1 ------- null}
r -t 1.674722170149 -s 3 -d 1 -p ack -e 40 -c 0 -i 1 -a 0 -x {3.0 2.0 0 ------- null}
+ -t 1.674722170149 -s 1 -d 0 -p ack -e 40 -c 0 -i 1 -a 0 -x {3.0 2.0 0 ------- null}
- -t 1.674722170149 -s 1 -d 0 -p ack -e 40 -c 0 -i 1 -a 0 -x {3.0 2.0 0 ------- null}
h -t 1.674722170149 -s 1 -d 0 -p ack -e 40 -c 0 -i 1 -a 0 -x {3.0 2.0 -1 ------- null}
r -t 1.692922170149 -s 1 -d 0 -p ack -e 40 -c 0 -i 1 -a 0 -x {3.0 2.0 0 ------- null}
+ -t 1.692922170149 -s 0 -d 2 -p ack -e 40 -c 0 -i 1 -a 0 -x {3.0 2.0 0 ------- null}
- -t 1.692922170149 -s 0 -d 2 -p ack -e 40 -c 0 -i 1 -a 0 -x {3.0 2.0 0 ------- null}
h -t 1.692922170149 -s 0 -d 2 -p ack -e 40 -c 0 -i 1 -a 0 -x {3.0 2.0 -1 ------- null}
r -t 1.711122170149 -s 0 -d 2 -p ack -e 40 -c 0 -i 1 -a 0 -x {3.0 2.0 0 ------- null}
+ -t 1.711122170149 -s 2 -d 0 -p exp -e 1540 -c 0 -i 2 -a 0 -x {2.0 3.0 0 ------- null}
- -t 1.711122170149 -s 2 -d 0 -p exp -e 1540 -c 0 -i 2 -a 0 -x {2.0 3.0 0 ------- null}
h -t 1.711122170149 -s 2 -d 0 -p exp -e 1540 -c 0 -i 2 -a 0 -x {2.0 3.0 -1 ------- null}
+ -t 1.711122170149 -s 2 -d 0 -p exp -e 1540 -c 0 -i 3 -a 0 -x {2.0 3.0 0 ------- null}
- -t 1.834322170149 -s 2 -d 0 -p exp -e 1540 -c 0 -i 3 -a 0 -x {2.0 3.0 0 ------- null}
h -t 1.834322170149 -s 2 -d 0 -p exp -e 1540 -c 0 -i 3 -a 0 -x {2.0 3.0 -1 ------- null}
r -t 1.849322170149 -s 2 -d 0 -p exp -e 1540 -c 0 -i 2 -a 0 -x {2.0 3.0 0 ------- null}
+ -t 1.849322170149 -s 0 -d 1 -p exp -e 1540 -c 0 -i 2 -a 0 -x {2.0 3.0 0 ------- null}
- -t 1.849322170149 -s 0 -d 1 -p exp -e 1540 -c 0 -i 2 -a 0 -x {2.0 3.0 0 ------- null}
h -t 1.849322170149 -s 0 -d 1 -p exp -e 1540 -c 0 -i 2 -a 0 -x {2.0 3.0 -1 ------- null}
r -t 1.972522170149 -s 2 -d 0 -p exp -e 1540 -c 0 -i 3 -a 0 -x {2.0 3.0 0 ------- null}
+ -t 1.972522170149 -s 0 -d 1 -p exp -e 1540 -c 0 -i 3 -a 0 -x {2.0 3.0 0 ------- null}
- -t 1.972522170149 -s 0 -d 1 -p exp -e 1540 -c 0 -i 3 -a 0 -x {2.0 3.0 0 ------- null}
h -t 1.972522170149 -s 0 -d 1 -p exp -e 1540 -c 0 -i 3 -a 0 -x {2.0 3.0 -1 ------- null}
r -t 1.987522170149 -s 0 -d 1 -p exp -e 1540 -c 0 -i 2 -a 0 -x {2.0 3.0 0 ------- null}
+ -t 1.987522170149 -s 1 -d 3 -p exp -e 1540 -c 0 -i 2 -a 0 -x {2.0 3.0 0 ------- null}
- -t 1.987522170149 -s 1 -d 3 -p exp -e 1540 -c 0 -i 2 -a 0 -x {2.0 3.0 0 ------- null}
h -t 1.987522170149 -s 1 -d 3 -p exp -e 1540 -c 0 -i 2 -a 0 -x {2.0 3.0 -1 ------- null}
+ -t 2.041122170149 -s 2 -d 0 -p exp -e 1540 -c 0 -i 4 -a 0 -x {2.0 3.0 0 ---A--- null}
- -t 2.041122170149 -s 2 -d 0 -p exp -e 1540 -c 0 -i 4 -a 0 -x {2.0 3.0 0 ---A--- null}
h -t 2.041122170149 -s 2 -d 0 -p exp -e 1540 -c 0 -i 4 -a 0 -x {2.0 3.0 -1 ---A--- null}
r -t 2.110722170149 -s 0 -d 1 -p exp -e 1540 -c 0 -i 3 -a 0 -x {2.0 3.0 0 ------- null}
+ -t 2.110722170149 -s 1 -d 3 -p exp -e 1540 -c 0 -i 3 -a 0 -x {2.0 3.0 0 ------- null}
- -t 2.110722170149 -s 1 -d 3 -p exp -e 1540 -c 0 -i 3 -a 0 -x {2.0 3.0 0 ------- null}
h -t 2.110722170149 -s 1 -d 3 -p exp -e 1540 -c 0 -i 3 -a 0 -x {2.0 3.0 -1 ------- null}
+ -t 2.11287013838808 -s 4 -d 0 -p exp -e 40 -c 0 -i 5 -a 0 -x {4.0 5.0 0 ------- null}
- -t 2.11287013838808 -s 4 -d 0 -p exp -e 40 -c 0 -i 5 -a 0 -x {4.0 5.0 0 ------- null}
h -t 2.11287013838808 -s 4 -d 0 -p exp -e 40 -c 0 -i 5 -a 0 -x {4.0 5.0 -1 ------- null}
r -t 2.125722170149 -s 1 -d 3 -p exp -e 1540 -c 0 -i 2 -a 0 -x {2.0 3.0 0 ------- null}
+ -t 2.125722170149 -s 3 -d 1 -p ack -e 40 -c 0 -i 6 -a 0 -x {3.0 2.0 1 ------- null}
- -t 2.125722170149 -s 3 -d 1 -p ack -e 40 -c 0 -i 6 -a 0 -x {3.0 2.0 1 ------- null}
h -t 2.125722170149 -s 3 -d 1 -p ack -e 40 -c 0 -i 6 -a 0 -x {3.0 2.0 -1 ------- null}
r -t 2.13107013838808 -s 4 -d 0 -p exp -e 40 -c 0 -i 5 -a 0 -x {4.0 5.0 0 ------- null}
+ -t 2.13107013838808 -s 0 -d 1 -p exp -e 40 -c 0 -i 5 -a 0 -x {4.0 5.0 0 ------- null}
- -t 2.13107013838808 -s 0 -d 1 -p exp -e 40 -c 0 -i 5 -a 0 -x {4.0 5.0 0 ------- null}
h -t 2.13107013838808 -s 0 -d 1 -p exp -e 40 -c 0 -i 5 -a 0 -x {4.0 5.0 -1 ------- null}
r -t 2.143922170149 -s 3 -d 1 -p ack -e 40 -c 0 -i 6 -a 0 -x {3.0 2.0 1 ------- null}
+ -t 2.143922170149 -s 1 -d 0 -p ack -e 40 -c 0 -i 6 -a 0 -x {3.0 2.0 1 ------- null}
- -t 2.143922170149 -s 1 -d 0 -p ack -e 40 -c 0 -i 6 -a 0 -x {3.0 2.0 1 ------- null}
h -t 2.143922170149 -s 1 -d 0 -p ack -e 40 -c 0 -i 6 -a 0 -x {3.0 2.0 -1 ------- null}
r -t 2.14927013838808 -s 0 -d 1 -p exp -e 40 -c 0 -i 5 -a 0 -x {4.0 5.0 0 ------- null}
+ -t 2.14927013838808 -s 1 -d 5 -p exp -e 40 -c 0 -i 5 -a 0 -x {4.0 5.0 0 ------- null}
- -t 2.14927013838808 -s 1 -d 5 -p exp -e 40 -c 0 -i 5 -a 0 -x {4.0 5.0 0 ------- null}
h -t 2.14927013838808 -s 1 -d 5 -p exp -e 40 -c 0 -i 5 -a 0 -x {4.0 5.0 -1 ------- null}
r -t 2.162122170149 -s 1 -d 0 -p ack -e 40 -c 0 -i 6 -a 0 -x {3.0 2.0 1 ------- null}
+ -t 2.162122170149 -s 0 -d 2 -p ack -e 40 -c 0 -i 6 -a 0 -x {3.0 2.0 1 ------- null}
- -t 2.162122170149 -s 0 -d 2 -p ack -e 40 -c 0 -i 6 -a 0 -x {3.0 2.0 1 ------- null}
h -t 2.162122170149 -s 0 -d 2 -p ack -e 40 -c 0 -i 6 -a 0 -x {3.0 2.0 -1 ------- null}
r -t 2.16747013838808 -s 1 -d 5 -p exp -e 40 -c 0 -i 5 -a 0 -x {4.0 5.0 0 ------- null}
+ -t 2.16747013838808 -s 5 -d 1 -p ack -e 40 -c 0 -i 7 -a 0 -x {5.0 4.0 0 ------- null}
- -t 2.16747013838808 -s 5 -d 1 -p ack -e 40 -c 0 -i 7 -a 0 -x {5.0 4.0 0 ------- null}
h -t 2.16747013838808 -s 5 -d 1 -p ack -e 40 -c 0 -i 7 -a 0 -x {5.0 4.0 -1 ------- null}
r -t 2.179322170149 -s 2 -d 0 -p exp -e 1540 -c 0 -i 4 -a 0 -x {2.0 3.0 0 ---A--- null}
+ -t 2.179322170149 -s 0 -d 1 -p exp -e 1540 -c 0 -i 4 -a 0 -x {2.0 3.0 0 ---A--- null}
- -t 2.179322170149 -s 0 -d 1 -p exp -e 1540 -c 0 -i 4 -a 0 -x {2.0 3.0 0 ---A--- null}
h -t 2.179322170149 -s 0 -d 1 -p exp -e 1540 -c 0 -i 4 -a 0 -x {2.0 3.0 -1 ---A--- null}
r -t 2.180322170149 -s 0 -d 2 -p ack -e 40 -c 0 -i 6 -a 0 -x {3.0 2.0 1 ------- null}
+ -t 2.180322170149 -s 2 -d 0 -p exp -e 1540 -c 0 -i 8 -a 0 -x {2.0 3.0 0 ------- null}
- -t 2.180322170149 -s 2 -d 0 -p exp -e 1540 -c 0 -i 8 -a 0 -x {2.0 3.0 0 ------- null}
h -t 2.180322170149 -s 2 -d 0 -p exp -e 1540 -c 0 -i 8 -a 0 -x {2.0 3.0 -1 ------- null}
+ -t 2.180322170149 -s 2 -d 0 -p exp -e 1540 -c 0 -i 9 -a 0 -x {2.0 3.0 0 ------- null}
r -t 2.18567013838808 -s 5 -d 1 -p ack -e 40 -c 0 -i 7 -a 0 -x {5.0 4.0 0 ------- null}
+ -t 2.18567013838808 -s 1 -d 0 -p ack -e 40 -c 0 -i 7 -a 0 -x {5.0 4.0 0 ------- null}
- -t 2.18567013838808 -s 1 -d 0 -p ack -e 40 -c 0 -i 7 -a 0 -x {5.0 4.0 0 ------- null}
h -t 2.18567013838808 -s 1 -d 0 -p ack -e 40 -c 0 -i 7 -a 0 -x {5.0 4.0 -1 ------- null}
r -t 2.20387013838808 -s 1 -d 0 -p ack -e 40 -c 0 -i 7 -a 0 -x {5.0 4.0 0 ------- null}
+ -t 2.20387013838808 -s 0 -d 4 -p ack -e 40 -c 0 -i 7 -a 0 -x {5.0 4.0 0 ------- null}
- -t 2.20387013838808 -s 0 -d 4 -p ack -e 40 -c 0 -i 7 -a 0 -x {5.0 4.0 0 ------- null}
h -t 2.20387013838808 -s 0 -d 4 -p ack -e 40 -c 0 -i 7 -a 0 -x {5.0 4.0 -1 ------- null}
r -t 2.22207013838808 -s 0 -d 4 -p ack -e 40 -c 0 -i 7 -a 0 -x {5.0 4.0 0 ------- null}
+ -t 2.22207013838808 -s 4 -d 0 -p exp -e 1540 -c 0 -i 10 -a 0 -x {4.0 5.0 0 ------- null}
- -t 2.22207013838808 -s 4 -d 0 -p exp -e 1540 -c 0 -i 10 -a 0 -x {4.0 5.0 0 ------- null}
h -t 2.22207013838808 -s 4 -d 0 -p exp -e 1540 -c 0 -i 10 -a 0 -x {4.0 5.0 -1 ------- null}
+ -t 2.22207013838808 -s 4 -d 0 -p exp -e 1540 -c 0 -i 11 -a 0 -x {4.0 5.0 0 ------- null}
r -t 2.248922170149 -s 1 -d 3 -p exp -e 1540 -c 0 -i 3 -a 0 -x {2.0 3.0 0 ------- null}
+ -t 2.248922170149 -s 3 -d 1 -p ack -e 40 -c 0 -i 12 -a 0 -x {3.0 2.0 2 ------- null}
- -t 2.248922170149 -s 3 -d 1 -p ack -e 40 -c 0 -i 12 -a 0 -x {3.0 2.0 2 ------- null}
h -t 2.248922170149 -s 3 -d 1 -p ack -e 40 -c 0 -i 12 -a 0 -x {3.0 2.0 -1 ------- null}
r -t 2.267122170149 -s 3 -d 1 -p ack -e 40 -c 0 -i 12 -a 0 -x {3.0 2.0 2 ------- null}
+ -t 2.267122170149 -s 1 -d 0 -p ack -e 40 -c 0 -i 12 -a 0 -x {3.0 2.0 2 ------- null}
- -t 2.267122170149 -s 1 -d 0 -p ack -e 40 -c 0 -i 12 -a 0 -x {3.0 2.0 2 ------- null}
h -t 2.267122170149 -s 1 -d 0 -p ack -e 40 -c 0 -i 12 -a 0 -x {3.0 2.0 -1 ------- null}
r -t 2.285322170149 -s 1 -d 0 -p ack -e 40 -c 0 -i 12 -a 0 -x {3.0 2.0 2 ------- null}
+ -t 2.285322170149 -s 0 -d 2 -p ack -e 40 -c 0 -i 12 -a 0 -x {3.0 2.0 2 ------- null}
- -t 2.285322170149 -s 0 -d 2 -p ack -e 40 -c 0 -i 12 -a 0 -x {3.0 2.0 2 ------- null}
h -t 2.285322170149 -s 0 -d 2 -p ack -e 40 -c 0 -i 12 -a 0 -x {3.0 2.0 -1 ------- null}
- -t 2.303522170149 -s 2 -d 0 -p exp -e 1540 -c 0 -i 9 -a 0 -x {2.0 3.0 0 ------- null}
h -t 2.303522170149 -s 2 -d 0 -p exp -e 1540 -c 0 -i 9 -a 0 -x {2.0 3.0 -1 ------- null}
r -t 2.303522170149 -s 0 -d 2 -p ack -e 40 -c 0 -i 12 -a 0 -x {3.0 2.0 2 ------- null}
+ -t 2.303522170149 -s 2 -d 0 -p exp -e 1540 -c 0 -i 13 -a 0 -x {2.0 3.0 0 ------- null}
r -t 2.317522170149 -s 0 -d 1 -p exp -e 1540 -c 0 -i 4 -a 0 -x {2.0 3.0 0 ---A--- null}
+ -t 2.317522170149 -s 1 -d 3 -p exp -e 1540 -c 0 -i 4 -a 0 -x {2.0 3.0 0 ---A--- null}
- -t 2.317522170149 -s 1 -d 3 -p exp -e 1540 -c 0 -i 4 -a 0 -x {2.0 3.0 0 ---A--- null}
h -t 2.317522170149 -s 1 -d 3 -p exp -e 1540 -c 0 -i 4 -a 0 -x {2.0 3.0 -1 ---A--- null}
r -t 2.318522170149 -s 2 -d 0 -p exp -e 1540 -c 0 -i 8 -a 0 -x {2.0 3.0 0 ------- null}
+ -t 2.318522170149 -s 0 -d 1 -p exp -e 1540 -c 0 -i 8 -a 0 -x {2.0 3.0 0 ------- null}
- -t 2.318522170149 -s 0 -d 1 -p exp -e 1540 -c 0 -i 8 -a 0 -x {2.0 3.0 0 ------- null}
h -t 2.318522170149 -s 0 -d 1 -p exp -e 1540 -c 0 -i 8 -a 0 -x {2.0 3.0 -1 ------- null}
- -t 2.34527013838808 -s 4 -d 0 -p exp -e 1540 -c 0 -i 11 -a 0 -x {4.0 5.0 0 ------- null}
h -t 2.34527013838808 -s 4 -d 0 -p exp -e 1540 -c 0 -i 11 -a 0 -x {4.0 5.0 -1 ------- null}
r -t 2.36027013838808 -s 4 -d 0 -p exp -e 1540 -c 0 -i 10 -a 0 -x {4.0 5.0 0 ------- null}
+ -t 2.36027013838808 -s 0 -d 1 -p exp -e 1540 -c 0 -i 10 -a 0 -x {4.0 5.0 0 ------- null}
- -t 2.426722170149 -s 2 -d 0 -p exp -e 1540 -c 0 -i 13 -a 0 -x {2.0 3.0 0 ------- null}
h -t 2.426722170149 -s 2 -d 0 -p exp -e 1540 -c 0 -i 13 -a 0 -x {2.0 3.0 -1 ------- null}
r -t 2.441722170149 -s 2 -d 0 -p exp -e 1540 -c 0 -i 9 -a 0 -x {2.0 3.0 0 ------- null}
+ -t 2.441722170149 -s 0 -d 1 -p exp -e 1540 -c 0 -i 9 -a 0 -x {2.0 3.0 0 ------- null}
- -t 2.441722170149 -s 0 -d 1 -p exp -e 1540 -c 0 -i 10 -a 0 -x {4.0 5.0 0 ------- null}
h -t 2.441722170149 -s 0 -d 1 -p exp -e 1540 -c 0 -i 10 -a 0 -x {4.0 5.0 -1 ------- null}
+ -t 2.45566586792423 -s 6 -d 0 -p exp -e 40 -c 0 -i 14 -a 0 -x {6.0 7.0 0 ------- null}
- -t 2.45566586792423 -s 6 -d 0 -p exp -e 40 -c 0 -i 14 -a 0 -x {6.0 7.0 0 ------- null}
h -t 2.45566586792423 -s 6 -d 0 -p exp -e 40 -c 0 -i 14 -a 0 -x {6.0 7.0 -1 ------- null}
r -t 2.455722170149 -s 1 -d 3 -p exp -e 1540 -c 0 -i 4 -a 0 -x {2.0 3.0 0 ---A--- null}
+ -t 2.455722170149 -s 3 -d 1 -p ack -e 40 -c 0 -i 15 -a 0 -x {3.0 2.0 2 ------- null}
- -t 2.455722170149 -s 3 -d 1 -p ack -e 40 -c 0 -i 15 -a 0 -x {3.0 2.0 2 ------- null}
h -t 2.455722170149 -s 3 -d 1 -p ack -e 40 -c 0 -i 15 -a 0 -x {3.0 2.0 -1 ------- null}
r -t 2.456722170149 -s 0 -d 1 -p exp -e 1540 -c 0 -i 8 -a 0 -x {2.0 3.0 0 ------- null}
+ -t 2.456722170149 -s 1 -d 3 -p exp -e 1540 -c 0 -i 8 -a 0 -x {2.0 3.0 0 ------- null}
- -t 2.456722170149 -s 1 -d 3 -p exp -e 1540 -c 0 -i 8 -a 0 -x {2.0 3.0 0 ------- null}
h -t 2.456722170149 -s 1 -d 3 -p exp -e 1540 -c 0 -i 8 -a 0 -x {2.0 3.0 -1 ------- null}
r -t 2.47386586792423 -s 6 -d 0 -p exp -e 40 -c 0 -i 14 -a 0 -x {6.0 7.0 0 ------- null}
+ -t 2.47386586792423 -s 0 -d 1 -p exp -e 40 -c 0 -i 14 -a 0 -x {6.0 7.0 0 ------- null}
r -t 2.473922170149 -s 3 -d 1 -p ack -e 40 -c 0 -i 15 -a 0 -x {3.0 2.0 2 ------- null}
+ -t 2.473922170149 -s 1 -d 0 -p ack -e 40 -c 0 -i 15 -a 0 -x {3.0 2.0 2 ------- null}
- -t 2.473922170149 -s 1 -d 0 -p ack -e 40 -c 0 -i 15 -a 0 -x {3.0 2.0 2 ------- null}
h -t 2.473922170149 -s 1 -d 0 -p ack -e 40 -c 0 -i 15 -a 0 -x {3.0 2.0 -1 ------- null}
r -t 2.48347013838808 -s 4 -d 0 -p exp -e 1540 -c 0 -i 11 -a 0 -x {4.0 5.0 0 ------- null}
+ -t 2.48347013838808 -s 0 -d 1 -p exp -e 1540 -c 0 -i 11 -a 0 -x {4.0 5.0 0 ------- null}
r -t 2.492122170149 -s 1 -d 0 -p ack -e 40 -c 0 -i 15 -a 0 -x {3.0 2.0 2 ------- null}
+ -t 2.492122170149 -s 0 -d 2 -p ack -e 40 -c 0 -i 15 -a 0 -x {3.0 2.0 2 ------- null}
- -t 2.492122170149 -s 0 -d 2 -p ack -e 40 -c 0 -i 15 -a 0 -x {3.0 2.0 2 ------- null}
h -t 2.492122170149 -s 0 -d 2 -p ack -e 40 -c 0 -i 15 -a 0 -x {3.0 2.0 -1 ------- null}
r -t 2.510322170149 -s 0 -d 2 -p ack -e 40 -c 0 -i 15 -a 0 -x {3.0 2.0 2 ------- null}
+ -t 2.510322170149 -s 2 -d 0 -p exp -e 1540 -c 0 -i 16 -a 0 -x {2.0 3.0 0 ------- null}
- -t 2.549922170149 -s 2 -d 0 -p exp -e 1540 -c 0 -i 16 -a 0 -x {2.0 3.0 0 ------- null}
h -t 2.549922170149 -s 2 -d 0 -p exp -e 1540 -c 0 -i 16 -a 0 -x {2.0 3.0 -1 ------- null}
+ -t 2.55207013838808 -s 4 -d 0 -p exp -e 1540 -c 0 -i 17 -a 0 -x {4.0 5.0 0 ---A--- null}
- -t 2.55207013838808 -s 4 -d 0 -p exp -e 1540 -c 0 -i 17 -a 0 -x {4.0 5.0 0 ---A--- null}
h -t 2.55207013838808 -s 4 -d 0 -p exp -e 1540 -c 0 -i 17 -a 0 -x {4.0 5.0 -1 ---A--- null}
r -t 2.564922170149 -s 2 -d 0 -p exp -e 1540 -c 0 -i 13 -a 0 -x {2.0 3.0 0 ------- null}
+ -t 2.564922170149 -s 0 -d 1 -p exp -e 1540 -c 0 -i 13 -a 0 -x {2.0 3.0 0 ------- null}
- -t 2.564922170149 -s 0 -d 1 -p exp -e 1540 -c 0 -i 9 -a 0 -x {2.0 3.0 0 ------- null}
h -t 2.564922170149 -s 0 -d 1 -p exp -e 1540 -c 0 -i 9 -a 0 -x {2.0 3.0 -1 ------- null}
r -t 2.579922170149 -s 0 -d 1 -p exp -e 1540 -c 0 -i 10 -a 0 -x {4.0 5.0 0 ------- null}
+ -t 2.579922170149 -s 1 -d 5 -p exp -e 1540 -c 0 -i 10 -a 0 -x {4.0 5.0 0 ------- null}
- -t 2.579922170149 -s 1 -d 5 -p exp -e 1540 -c 0 -i 10 -a 0 -x {4.0 5.0 0 ------- null}
h -t 2.579922170149 -s 1 -d 5 -p exp -e 1540 -c 0 -i 10 -a 0 -x {4.0 5.0 -1 ------- null}
r -t 2.594922170149 -s 1 -d 3 -p exp -e 1540 -c 0 -i 8 -a 0 -x {2.0 3.0 0 ------- null}
+ -t 2.594922170149 -s 3 -d 1 -p ack -e 40 -c 0 -i 18 -a 0 -x {3.0 2.0 2 ------- null}
- -t 2.594922170149 -s 3 -d 1 -p ack -e 40 -c 0 -i 18 -a 0 -x {3.0 2.0 2 ------- null}
h -t 2.594922170149 -s 3 -d 1 -p ack -e 40 -c 0 -i 18 -a 0 -x {3.0 2.0 -1 ------- null}
r -t 2.613122170149 -s 3 -d 1 -p ack -e 40 -c 0 -i 18 -a 0 -x {3.0 2.0 2 ------- null}
+ -t 2.613122170149 -s 1 -d 0 -p ack -e 40 -c 0 -i 18 -a 0 -x {3.0 2.0 2 ------- null}
- -t 2.613122170149 -s 1 -d 0 -p ack -e 40 -c 0 -i 18 -a 0 -x {3.0 2.0 2 ------- null}
h -t 2.613122170149 -s 1 -d 0 -p ack -e 40 -c 0 -i 18 -a 0 -x {3.0 2.0 -1 ------- null}
r -t 2.631322170149 -s 1 -d 0 -p ack -e 40 -c 0 -i 18 -a 0 -x {3.0 2.0 2 ------- null}
+ -t 2.631322170149 -s 0 -d 2 -p ack -e 40 -c 0 -i 18 -a 0 -x {3.0 2.0 2 ------- null}
- -t 2.631322170149 -s 0 -d 2 -p ack -e 40 -c 0 -i 18 -a 0 -x {3.0 2.0 2 ------- null}
h -t 2.631322170149 -s 0 -d 2 -p ack -e 40 -c 0 -i 18 -a 0 -x {3.0 2.0 -1 ------- null}
r -t 2.649522170149 -s 0 -d 2 -p ack -e 40 -c 0 -i 18 -a 0 -x {3.0 2.0 2 ------- null}
+ -t 2.649522170149 -s 2 -d 0 -p exp -e 1540 -c 0 -i 19 -a 0 -x {2.0 3.0 0 ------- null}
- -t 2.673122170149 -s 2 -d 0 -p exp -e 1540 -c 0 -i 19 -a 0 -x {2.0 3.0 0 ------- null}
h -t 2.673122170149 -s 2 -d 0 -p exp -e 1540 -c 0 -i 19 -a 0 -x {2.0 3.0 -1 ------- null}
r -t 2.688122170149 -s 2 -d 0 -p exp -e 1540 -c 0 -i 16 -a 0 -x {2.0 3.0 0 ------- null}
+ -t 2.688122170149 -s 0 -d 1 -p exp -e 1540 -c 0 -i 16 -a 0 -x {2.0 3.0 0 ------- null}
- -t 2.688122170149 -s 0 -d 1 -p exp -e 40 -c 0 -i 14 -a 0 -x {6.0 7.0 0 ------- null}
h -t 2.688122170149 -s 0 -d 1 -p exp -e 40 -c 0 -i 14 -a 0 -x {6.0 7.0 -1 ------- null}
r -t 2.69027013838808 -s 4 -d 0 -p exp -e 1540 -c 0 -i 17 -a 0 -x {4.0 5.0 0 ---A--- null}
+ -t 2.69027013838808 -s 0 -d 1 -p exp -e 1540 -c 0 -i 17 -a 0 -x {4.0 5.0 0 ---A--- null}
- -t 2.691322170149 -s 0 -d 1 -p exp -e 1540 -c 0 -i 11 -a 0 -x {4.0 5.0 0 ------- null}
h -t 2.691322170149 -s 0 -d 1 -p exp -e 1540 -c 0 -i 11 -a 0 -x {4.0 5.0 -1 ------- null}
r -t 2.703122170149 -s 0 -d 1 -p exp -e 1540 -c 0 -i 9 -a 0 -x {2.0 3.0 0 ------- null}
+ -t 2.703122170149 -s 1 -d 3 -p exp -e 1540 -c 0 -i 9 -a 0 -x {2.0 3.0 0 ------- null}
- -t 2.703122170149 -s 1 -d 3 -p exp -e 1540 -c 0 -i 9 -a 0 -x {2.0 3.0 0 ------- null}
h -t 2.703122170149 -s 1 -d 3 -p exp -e 1540 -c 0 -i 9 -a 0 -x {2.0 3.0 -1 ------- null}
r -t 2.706322170149 -s 0 -d 1 -p exp -e 40 -c 0 -i 14 -a 0 -x {6.0 7.0 0 ------- null}
+ -t 2.706322170149 -s 1 -d 7 -p exp -e 40 -c 0 -i 14 -a 0 -x {6.0 7.0 0 ------- null}
- -t 2.706322170149 -s 1 -d 7 -p exp -e 40 -c 0 -i 14 -a 0 -x {6.0 7.0 0 ------- null}
h -t 2.706322170149 -s 1 -d 7 -p exp -e 40 -c 0 -i 14 -a 0 -x {6.0 7.0 -1 ------- null}
r -t 2.718122170149 -s 1 -d 5 -p exp -e 1540 -c 0 -i 10 -a 0 -x {4.0 5.0 0 ------- null}
+ -t 2.718122170149 -s 5 -d 1 -p ack -e 40 -c 0 -i 20 -a 0 -x {5.0 4.0 1 ------- null}
- -t 2.718122170149 -s 5 -d 1 -p ack -e 40 -c 0 -i 20 -a 0 -x {5.0 4.0 1 ------- null}
h -t 2.718122170149 -s 5 -d 1 -p ack -e 40 -c 0 -i 20 -a 0 -x {5.0 4.0 -1 ------- null}
r -t 2.724522170149 -s 1 -d 7 -p exp -e 40 -c 0 -i 14 -a 0 -x {6.0 7.0 0 ------- null}
+ -t 2.724522170149 -s 7 -d 1 -p ack -e 40 -c 0 -i 21 -a 0 -x {7.0 6.0 0 ------- null}
- -t 2.724522170149 -s 7 -d 1 -p ack -e 40 -c 0 -i 21 -a 0 -x {7.0 6.0 0 ------- null}
h -t 2.724522170149 -s 7 -d 1 -p ack -e 40 -c 0 -i 21 -a 0 -x {7.0 6.0 -1 ------- null}
r -t 2.736322170149 -s 5 -d 1 -p ack -e 40 -c 0 -i 20 -a 0 -x {5.0 4.0 1 ------- null}
+ -t 2.736322170149 -s 1 -d 0 -p ack -e 40 -c 0 -i 20 -a 0 -x {5.0 4.0 1 ------- null}
- -t 2.736322170149 -s 1 -d 0 -p ack -e 40 -c 0 -i 20 -a 0 -x {5.0 4.0 1 ------- null}
h -t 2.736322170149 -s 1 -d 0 -p ack -e 40 -c 0 -i 20 -a 0 -x {5.0 4.0 -1 ------- null}
r -t 2.742722170149 -s 7 -d 1 -p ack -e 40 -c 0 -i 21 -a 0 -x {7.0 6.0 0 ------- null}
+ -t 2.742722170149 -s 1 -d 0 -p ack -e 40 -c 0 -i 21 -a 0 -x {7.0 6.0 0 ------- null}
- -t 2.742722170149 -s 1 -d 0 -p ack -e 40 -c 0 -i 21 -a 0 -x {7.0 6.0 0 ------- null}
h -t 2.742722170149 -s 1 -d 0 -p ack -e 40 -c 0 -i 21 -a 0 -x {7.0 6.0 -1 ------- null}
r -t 2.754522170149 -s 1 -d 0 -p ack -e 40 -c 0 -i 20 -a 0 -x {5.0 4.0 1 ------- null}
+ -t 2.754522170149 -s 0 -d 4 -p ack -e 40 -c 0 -i 20 -a 0 -x {5.0 4.0 1 ------- null}
- -t 2.754522170149 -s 0 -d 4 -p ack -e 40 -c 0 -i 20 -a 0 -x {5.0 4.0 1 ------- null}
h -t 2.754522170149 -s 0 -d 4 -p ack -e 40 -c 0 -i 20 -a 0 -x {5.0 4.0 -1 ------- null}
r -t 2.760922170149 -s 1 -d 0 -p ack -e 40 -c 0 -i 21 -a 0 -x {7.0 6.0 0 ------- null}
+ -t 2.760922170149 -s 0 -d 6 -p ack -e 40 -c 0 -i 21 -a 0 -x {7.0 6.0 0 ------- null}
- -t 2.760922170149 -s 0 -d 6 -p ack -e 40 -c 0 -i 21 -a 0 -x {7.0 6.0 0 ------- null}
h -t 2.760922170149 -s 0 -d 6 -p ack -e 40 -c 0 -i 21 -a 0 -x {7.0 6.0 -1 ------- null}
r -t 2.772722170149 -s 0 -d 4 -p ack -e 40 -c 0 -i 20 -a 0 -x {5.0 4.0 1 ------- null}
+ -t 2.772722170149 -s 4 -d 0 -p exp -e 1540 -c 0 -i 22 -a 0 -x {4.0 5.0 0 ------- null}
- -t 2.772722170149 -s 4 -d 0 -p exp -e 1540 -c 0 -i 22 -a 0 -x {4.0 5.0 0 ------- null}
h -t 2.772722170149 -s 4 -d 0 -p exp -e 1540 -c 0 -i 22 -a 0 -x {4.0 5.0 -1 ------- null}
+ -t 2.772722170149 -s 4 -d 0 -p exp -e 1540 -c 0 -i 23 -a 0 -x {4.0 5.0 0 ------- null}
r -t 2.779122170149 -s 0 -d 6 -p ack -e 40 -c 0 -i 21 -a 0 -x {7.0 6.0 0 ------- null}
+ -t 2.779122170149 -s 6 -d 0 -p exp -e 1540 -c 0 -i 24 -a 0 -x {6.0 7.0 0 ------- null}
- -t 2.779122170149 -s 6 -d 0 -p exp -e 1540 -c 0 -i 24 -a 0 -x {6.0 7.0 0 ------- null}
h -t 2.779122170149 -s 6 -d 0 -p exp -e 1540 -c 0 -i 24 -a 0 -x {6.0 7.0 -1 ------- null}
+ -t 2.779122170149 -s 6 -d 0 -p exp -e 1540 -c 0 -i 25 -a 0 -x {6.0 7.0 0 ------- null}
r -t 2.811322170149 -s 2 -d 0 -p exp -e 1540 -c 0 -i 19 -a 0 -x {2.0 3.0 0 ------- null}
+ -t 2.811322170149 -s 0 -d 1 -p exp -e 1540 -c 0 -i 19 -a 0 -x {2.0 3.0 0 ------- null}
- -t 2.814522170149 -s 0 -d 1 -p exp -e 1540 -c 0 -i 13 -a 0 -x {2.0 3.0 0 ------- null}
h -t 2.814522170149 -s 0 -d 1 -p exp -e 1540 -c 0 -i 13 -a 0 -x {2.0 3.0 -1 ------- null}
r -t 2.829522170149 -s 0 -d 1 -p exp -e 1540 -c 0 -i 11 -a 0 -x {4.0 5.0 0 ------- null}
+ -t 2.829522170149 -s 1 -d 5 -p exp -e 1540 -c 0 -i 11 -a 0 -x {4.0 5.0 0 ------- null}
- -t 2.829522170149 -s 1 -d 5 -p exp -e 1540 -c 0 -i 11 -a 0 -x {4.0 5.0 0 ------- null}
h -t 2.829522170149 -s 1 -d 5 -p exp -e 1540 -c 0 -i 11 -a 0 -x {4.0 5.0 -1 ------- null}
r -t 2.841322170149 -s 1 -d 3 -p exp -e 1540 -c 0 -i 9 -a 0 -x {2.0 3.0 0 ------- null}
+ -t 2.841322170149 -s 3 -d 1 -p ack -e 40 -c 0 -i 26 -a 0 -x {3.0 2.0 3 ------- null}
- -t 2.841322170149 -s 3 -d 1 -p ack -e 40 -c 0 -i 26 -a 0 -x {3.0 2.0 3 ------- null}
h -t 2.841322170149 -s 3 -d 1 -p ack -e 40 -c 0 -i 26 -a 0 -x {3.0 2.0 -1 ------- null}
r -t 2.859522170149 -s 3 -d 1 -p ack -e 40 -c 0 -i 26 -a 0 -x {3.0 2.0 3 ------- null}
+ -t 2.859522170149 -s 1 -d 0 -p ack -e 40 -c 0 -i 26 -a 0 -x {3.0 2.0 3 ------- null}
- -t 2.859522170149 -s 1 -d 0 -p ack -e 40 -c 0 -i 26 -a 0 -x {3.0 2.0 3 ------- null}
h -t 2.859522170149 -s 1 -d 0 -p ack -e 40 -c 0 -i 26 -a 0 -x {3.0 2.0 -1 ------- null}
r -t 2.877722170149 -s 1 -d 0 -p ack -e 40 -c 0 -i 26 -a 0 -x {3.0 2.0 3 ------- null}
+ -t 2.877722170149 -s 0 -d 2 -p ack -e 40 -c 0 -i 26 -a 0 -x {3.0 2.0 3 ------- null}
- -t 2.877722170149 -s 0 -d 2 -p ack -e 40 -c 0 -i 26 -a 0 -x {3.0 2.0 3 ------- null}
h -t 2.877722170149 -s 0 -d 2 -p ack -e 40 -c 0 -i 26 -a 0 -x {3.0 2.0 -1 ------- null}
- -t 2.895922170149 -s 4 -d 0 -p exp -e 1540 -c 0 -i 23 -a 0 -x {4.0 5.0 0 ------- null}
h -t 2.895922170149 -s 4 -d 0 -p exp -e 1540 -c 0 -i 23 -a 0 -x {4.0 5.0 -1 ------- null}
r -t 2.895922170149 -s 0 -d 2 -p ack -e 40 -c 0 -i 26 -a 0 -x {3.0 2.0 3 ------- null}
- -t 2.902322170149 -s 6 -d 0 -p exp -e 1540 -c 0 -i 25 -a 0 -x {6.0 7.0 0 ------- null}
h -t 2.902322170149 -s 6 -d 0 -p exp -e 1540 -c 0 -i 25 -a 0 -x {6.0 7.0 -1 ------- null}
r -t 2.910922170149 -s 4 -d 0 -p exp -e 1540 -c 0 -i 22 -a 0 -x {4.0 5.0 0 ------- null}
+ -t 2.910922170149 -s 0 -d 1 -p exp -e 1540 -c 0 -i 22 -a 0 -x {4.0 5.0 0 ------- null}
r -t 2.917322170149 -s 6 -d 0 -p exp -e 1540 -c 0 -i 24 -a 0 -x {6.0 7.0 0 ------- null}
+ -t 2.917322170149 -s 0 -d 1 -p exp -e 1540 -c 0 -i 24 -a 0 -x {6.0 7.0 0 ------- null}
- -t 2.937722170149 -s 0 -d 1 -p exp -e 1540 -c 0 -i 16 -a 0 -x {2.0 3.0 0 ------- null}
h -t 2.937722170149 -s 0 -d 1 -p exp -e 1540 -c 0 -i 16 -a 0 -x {2.0 3.0 -1 ------- null}
r -t 2.952722170149 -s 0 -d 1 -p exp -e 1540 -c 0 -i 13 -a 0 -x {2.0 3.0 0 ------- null}
+ -t 2.952722170149 -s 1 -d 3 -p exp -e 1540 -c 0 -i 13 -a 0 -x {2.0 3.0 0 ------- null}
- -t 2.952722170149 -s 1 -d 3 -p exp -e 1540 -c 0 -i 13 -a 0 -x {2.0 3.0 0 ------- null}
h -t 2.952722170149 -s 1 -d 3 -p exp -e 1540 -c 0 -i 13 -a 0 -x {2.0 3.0 -1 ------- null}
r -t 2.967722170149 -s 1 -d 5 -p exp -e 1540 -c 0 -i 11 -a 0 -x {4.0 5.0 0 ------- null}
+ -t 2.967722170149 -s 5 -d 1 -p ack -e 40 -c 0 -i 27 -a 0 -x {5.0 4.0 2 ------- null}
- -t 2.967722170149 -s 5 -d 1 -p ack -e 40 -c 0 -i 27 -a 0 -x {5.0 4.0 2 ------- null}
h -t 2.967722170149 -s 5 -d 1 -p ack -e 40 -c 0 -i 27 -a 0 -x {5.0 4.0 -1 ------- null}
r -t 2.985922170149 -s 5 -d 1 -p ack -e 40 -c 0 -i 27 -a 0 -x {5.0 4.0 2 ------- null}
+ -t 2.985922170149 -s 1 -d 0 -p ack -e 40 -c 0 -i 27 -a 0 -x {5.0 4.0 2 ------- null}
- -t 2.985922170149 -s 1 -d 0 -p ack -e 40 -c 0 -i 27 -a 0 -x {5.0 4.0 2 ------- null}
h -t 2.985922170149 -s 1 -d 0 -p ack -e 40 -c 0 -i 27 -a 0 -x {5.0 4.0 -1 ------- null}
r -t 3.004122170149 -s 1 -d 0 -p ack -e 40 -c 0 -i 27 -a 0 -x {5.0 4.0 2 ------- null}
+ -t 3.004122170149 -s 0 -d 4 -p ack -e 40 -c 0 -i 27 -a 0 -x {5.0 4.0 2 ------- null}
- -t 3.004122170149 -s 0 -d 4 -p ack -e 40 -c 0 -i 27 -a 0 -x {5.0 4.0 2 ------- null}
h -t 3.004122170149 -s 0 -d 4 -p ack -e 40 -c 0 -i 27 -a 0 -x {5.0 4.0 -1 ------- null}
r -t 3.022322170149 -s 0 -d 4 -p ack -e 40 -c 0 -i 27 -a 0 -x {5.0 4.0 2 ------- null}
+ -t 3.022322170149 -s 4 -d 0 -p exp -e 1540 -c 0 -i 28 -a 0 -x {4.0 5.0 0 ------- null}
- -t 3.022322170149 -s 4 -d 0 -p exp -e 1540 -c 0 -i 28 -a 0 -x {4.0 5.0 0 ------- null}
h -t 3.022322170149 -s 4 -d 0 -p exp -e 1540 -c 0 -i 28 -a 0 -x {4.0 5.0 -1 ------- null}
r -t 3.034122170149 -s 4 -d 0 -p exp -e 1540 -c 0 -i 23 -a 0 -x {4.0 5.0 0 ------- null}
+ -t 3.034122170149 -s 0 -d 1 -p exp -e 1540 -c 0 -i 23 -a 0 -x {4.0 5.0 0 ------- null}
r -t 3.040522170149 -s 6 -d 0 -p exp -e 1540 -c 0 -i 25 -a 0 -x {6.0 7.0 0 ------- null}
+ -t 3.040522170149 -s 0 -d 1 -p exp -e 1540 -c 0 -i 25 -a 0 -x {6.0 7.0 0 ------- null}
- -t 3.060922170149 -s 0 -d 1 -p exp -e 1540 -c 0 -i 17 -a 0 -x {4.0 5.0 0 ---A--- null}
h -t 3.060922170149 -s 0 -d 1 -p exp -e 1540 -c 0 -i 17 -a 0 -x {4.0 5.0 -1 ---A--- null}
r -t 3.075922170149 -s 0 -d 1 -p exp -e 1540 -c 0 -i 16 -a 0 -x {2.0 3.0 0 ------- null}
+ -t 3.075922170149 -s 1 -d 3 -p exp -e 1540 -c 0 -i 16 -a 0 -x {2.0 3.0 0 ------- null}
- -t 3.075922170149 -s 1 -d 3 -p exp -e 1540 -c 0 -i 16 -a 0 -x {2.0 3.0 0 ------- null}
h -t 3.075922170149 -s 1 -d 3 -p exp -e 1540 -c 0 -i 16 -a 0 -x {2.0 3.0 -1 ------- null}
r -t 3.090922170149 -s 1 -d 3 -p exp -e 1540 -c 0 -i 13 -a 0 -x {2.0 3.0 0 ------- null}
+ -t 3.090922170149 -s 3 -d 1 -p ack -e 40 -c 0 -i 29 -a 0 -x {3.0 2.0 4 ------- null}
- -t 3.090922170149 -s 3 -d 1 -p ack -e 40 -c 0 -i 29 -a 0 -x {3.0 2.0 4 ------- null}
h -t 3.090922170149 -s 3 -d 1 -p ack -e 40 -c 0 -i 29 -a 0 -x {3.0 2.0 -1 ------- null}
r -t 3.109122170149 -s 3 -d 1 -p ack -e 40 -c 0 -i 29 -a 0 -x {3.0 2.0 4 ------- null}
+ -t 3.109122170149 -s 1 -d 0 -p ack -e 40 -c 0 -i 29 -a 0 -x {3.0 2.0 4 ------- null}
- -t 3.109122170149 -s 1 -d 0 -p ack -e 40 -c 0 -i 29 -a 0 -x {3.0 2.0 4 ------- null}
h -t 3.109122170149 -s 1 -d 0 -p ack -e 40 -c 0 -i 29 -a 0 -x {3.0 2.0 -1 ------- null}
r -t 3.127322170149 -s 1 -d 0 -p ack -e 40 -c 0 -i 29 -a 0 -x {3.0 2.0 4 ------- null}
+ -t 3.127322170149 -s 0 -d 2 -p ack -e 40 -c 0 -i 29 -a 0 -x {3.0 2.0 4 ------- null}
- -t 3.127322170149 -s 0 -d 2 -p ack -e 40 -c 0 -i 29 -a 0 -x {3.0 2.0 4 ------- null}
h -t 3.127322170149 -s 0 -d 2 -p ack -e 40 -c 0 -i 29 -a 0 -x {3.0 2.0 -1 ------- null}
r -t 3.145522170149 -s 0 -d 2 -p ack -e 40 -c 0 -i 29 -a 0 -x {3.0 2.0 4 ------- null}
+ -t 3.145522170149 -s 2 -d 0 -p exp -e 1540 -c 0 -i 30 -a 0 -x {2.0 3.0 0 ------- null}
- -t 3.145522170149 -s 2 -d 0 -p exp -e 1540 -c 0 -i 30 -a 0 -x {2.0 3.0 0 ------- null}
h -t 3.145522170149 -s 2 -d 0 -p exp -e 1540 -c 0 -i 30 -a 0 -x {2.0 3.0 -1 ------- null}
r -t 3.160522170149 -s 4 -d 0 -p exp -e 1540 -c 0 -i 28 -a 0 -x {4.0 5.0 0 ------- null}
+ -t 3.160522170149 -s 0 -d 1 -p exp -e 1540 -c 0 -i 28 -a 0 -x {4.0 5.0 0 ------- null}
- -t 3.184122170149 -s 0 -d 1 -p exp -e 1540 -c 0 -i 19 -a 0 -x {2.0 3.0 0 ------- null}
h -t 3.184122170149 -s 0 -d 1 -p exp -e 1540 -c 0 -i 19 -a 0 -x {2.0 3.0 -1 ------- null}
r -t 3.199122170149 -s 0 -d 1 -p exp -e 1540 -c 0 -i 17 -a 0 -x {4.0 5.0 0 ---A--- null}
+ -t 3.199122170149 -s 1 -d 5 -p exp -e 1540 -c 0 -i 17 -a 0 -x {4.0 5.0 0 ---A--- null}
- -t 3.199122170149 -s 1 -d 5 -p exp -e 1540 -c 0 -i 17 -a 0 -x {4.0 5.0 0 ---A--- null}
h -t 3.199122170149 -s 1 -d 5 -p exp -e 1540 -c 0 -i 17 -a 0 -x {4.0 5.0 -1 ---A--- null}