V -t * -v 1.0a5 -a 0
A -t * -n 1 -p 0 -o 0x7fffffff -c 30 -a 1
A -t * -h 1 -m 1073741823 -s 0
n -t * -a 17 -s 17 -S UP -v circle -c black -i black
n -t * -a 0 -s 0 -S UP -v circle -c black -i black
n -t * -a 1 -s 1 -S UP -v circle -c black -i black
n -t * -a 2 -s 2 -S UP -v circle -c black -i black
n -t * -a 3 -s 3 -S UP -v circle -c black -i black
n -t * -a 4 -s 4 -S UP -v circle -c black -i black
n -t * -a 5 -s 5 -S UP -v circle -c black -i black
n -t * -a 6 -s 6 -S UP -v circle -c black -i black
n -t * -a 7 -s 7 -S UP -v circle -c black -i black
n -t * -a 8 -s 8 -S UP -v circle -c black -i black
n -t * -a 9 -s 9 -S UP -v circle -c black -i black
n -t * -a 10 -s 10 -S UP -v circle -c black -i black
n -t * -a 11 -s 11 -S UP -v circle -c black -i black
n -t * -a 12 -s 12 -S UP -v circle -c black -i black
n -t * -a 13 -s 13 -S UP -v circle -c black -i black
n -t * -a 14 -s 14 -S UP -v circle -c black -i black
n -t * -a 15 -s 15 -S UP -v circle -c black -i black
n -t * -a 16 -s 16 -S UP -v circle -c black -i black
l -t * -s 0 -d 1 -S UP -r 100000 -D 0.014999999999999999 -c black
l -t * -s 2 -d 0 -S UP -r 100000 -D 0.014999999999999999 -c black
l -t * -s 3 -d 1 -S UP -r 100000 -D 0.014999999999999999 -c black
l -t * -s 4 -d 0 -S UP -r 100000 -D 0.014999999999999999 -c black
l -t * -s 5 -d 1 -S UP -r 100000 -D 0.014999999999999999 -c black
l -t * -s 6 -d 0 -S UP -r 100000 -D 0.014999999999999999 -c black
l -t * -s 7 -d 1 -S UP -r 100000 -D 0.014999999999999999 -c black
l -t * -s 8 -d 0 -S UP -r 100000 -D 0.014999999999999999 -c black
l -t * -s 9 -d 1 -S UP -r 100000 -D 0.014999999999999999 -c black
l -t * -s 10 -d 0 -S UP -r 100000 -D 0.014999999999999999 -c black
l -t * -s 11 -d 1 -S UP -r 100000 -D 0.014999999999999999 -c black
l -t * -s 12 -d 0 -S UP -r 100000 -D 0.014999999999999999 -c black
l -t * -s 13 -d 1 -S UP -r 100000 -D 0.014999999999999999 -c black
l -t * -s 14 -d 0 -S UP -r 100000 -D 0.014999999999999999 -c black
l -t * -s 15 -d 1 -S UP -r 100000 -D 0.014999999999999999 -c black
l -t * -s 16 -d 0 -S UP -r 100000 -D 0.014999999999999999 -c black
l -t * -s 17 -d 1 -S UP -r 100000 -D 0.014999999999999999 -c black
+ -t 0.455665867924225 -s 2 -d 0 -p exp -e 40 -c 0 -i 0 -a 0 -x {2.0 3.0 0 ------- null}
- -t 0.455665867924225 -s 2 -d 0 -p exp -e 40 -c 0 -i 0 -a 0 -x {2.0 3.0 0 ------- null}
h -t 0.455665867924225 -s 2 -d 0 -p exp -e 40 -c 0 -i 0 -a 0 -x {2.0 3.0 -1 ------- null}
r -t 0.473865867924225 -s 2 -d 0 -p exp -e 40 -c 0 -i 0 -a 0 -x {2.0 3.0 0 ------- null}
+ -t 0.473865867924225 -s 0 -d 1 -p exp -e 40 -c 0 -i 0 -a 0 -x {2.0 3.0 0 ------- null}
- -t 0.473865867924225 -s 0 -d 1 -p exp -e 40 -c 0 -i 0 -a 0 -x {2.0 3.0 0 ------- null}
h -t 0.473865867924225 -s 0 -d 1 -p exp -e 40 -c 0 -i 0 -a 0 -x {2.0 3.0 -1 ------- null}
r -t 0.492065867924225 -s 0 -d 1 -p exp -e 40 -c 0 -i 0 -a 0 -x {2.0 3.0 0 ------- null}
+ -t 0.492065867924225 -s 1 -d 3 -p exp -e 40 -c 0 -i 0 -a 0 -x {2.0 3.0 0 ------- null}
- -t 0.492065867924225 -s 1 -d 3 -p exp -e 40 -c 0 -i 0 -a 0 -x {2.0 3.0 0 ------- null}
h -t 0.492065867924225 -s 1 -d 3 -p exp -e 40 -c 0 -i 0 -a 0 -x {2.0 3.0 -1 ------- null}
r -t 0.510265867924225 -s 1 -d 3 -p exp -e 40 -c 0 -i 0 -a 0 -x {2.0 3.0 0 ------- null}
+ -t 0.510265867924225 -s 3 -d 1 -p ack -e 40 -c 0 -i 1 -a 0 -x {3.0 2.0 0 ------- null}
- -t 0.510265867924225 -s 3 -d 1 -p ack -e 40 -c 0 -i 1 -a 0 -x {3.0 2.0 0 ------- null}
h -t 0.510265867924225 -s 3 -d 1 -p ack -e 40 -c 0 -i 1 -a 0 -x {3.0 2.0 -1 ------- null}
r -t 0.528465867924225 -s 3 -d 1 -p ack -e 40 -c 0 -i 1 -a 0 -x {3.0 2.0 0 ------- null}
+ -t 0.528465867924225 -s 1 -d 0 -p ack -e 40 -c 0 -i 1 -a 0 -x {3.0 2.0 0 ------- null}
- -t 0.528465867924225 -s 1 -d 0 -p ack -e 40 -c 0 -i 1 -a 0 -x {3.0 2.0 0 ------- null}
h -t 0.528465867924225 -s 1 -d 0 -p ack -e 40 -c 0 -i 1 -a 0 -x {3.0 2.0 -1 ------- null}
r -t 0.546665867924225 -s 1 -d 0 -p ack -e 40 -c 0 -i 1 -a 0 -x {3.0 2.0 0 ------- null}
+ -t 0.546665867924225 -s 0 -d 2 -p ack -e 40 -c 0 -i 1 -a 0 -x {3.0 2.0 0 ------- null}
- -t 0.546665867924225 -s 0 -d 2 -p ack -e 40 -c 0 -i 1 -a 0 -x {3.0 2.0 0 ------- null}
h -t 0.546665867924225 -s 0 -d 2 -p ack -e 40 -c 0 -i 1 -a 0 -x {3.0 2.0 -1 ------- null}
r -t 0.564865867924225 -s 0 -d 2 -p ack -e 40 -c 0 -i 1 -a 0 -x {3.0 2.0 0 ------- null}
+ -t 0.564865867924225 -s 2 -d 0 -p exp -e 1540 -c 0 -i 2 -a 0 -x {2.0 3.0 0 ------- null}
- -t 0.564865867924225 -s 2 -d 0 -p exp -e 1540 -c 0 -i 2 -a 0 -x {2.0 3.0 0 ------- null}
h -t 0.564865867924225 -s 2 -d 0 -p exp -e 1540 -c 0 -i 2 -a 0 -x {2.0 3.0 -1 ------- null}
+ -t 0.564865867924225 -s 2 -d 0 -p exp -e 1540 -c 0 -i 3 -a 0 -x {2.0 3.0 0 ------- null}
- -t 0.688065867924225 -s 2 -d 0 -p exp -e 1540 -c 0 -i 3 -a 0 -x {2.0 3.0 0 ------- null}
h -t 0.688065867924225 -s 2 -d 0 -p exp -e 1540 -c 0 -i 3 -a 0 -x {2.0 3.0 -1 ------- null}
r -t 0.703065867924225 -s 2 -d 0 -p exp -e 1540 -c 0 -i 2 -a 0 -x {2.0 3.0 0 ------- null}
+ -t 0.703065867924225 -s 0 -d 1 -p exp -e 1540 -c 0 -i 2 -a 0 -x {2.0 3.0 0 ------- null}
- -t 0.703065867924225 -s 0 -d 1 -p exp -e 1540 -c 0 -i 2 -a 0 -x {2.0 3.0 0 ------- null}
h -t 0.703065867924225 -s 0 -d 1 -p exp -e 1540 -c 0 -i 2 -a 0 -x {2.0 3.0 -1 ------- null}
r -t 0.826265867924225 -s 2 -d 0 -p exp -e 1540 -c 0 -i 3 -a 0 -x {2.0 3.0 0 ------- null}
+ -t 0.826265867924225 -s 0 -d 1 -p exp -e 1540 -c 0 -i 3 -a 0 -x {2.0 3.0 0 ------- null}
- -t 0.826265867924225 -s 0 -d 1 -p exp -e 1540 -c 0 -i 3 -a 0 -x {2.0 3.0 0 ------- null}
h -t 0.826265867924225 -s 0 -d 1 -p exp -e 1540 -c 0 -i 3 -a 0 -x {2.0 3.0 -1 ------- null}
r -t 0.841265867924225 -s 0 -d 1 -p exp -e 1540 -c 0 -i 2 -a 0 -x {2.0 3.0 0 ------- null}
+ -t 0.841265867924225 -s 1 -d 3 -p exp -e 1540 -c 0 -i 2 -a 0 -x {2.0 3.0 0 ------- null}
- -t 0.841265867924225 -s 1 -d 3 -p exp -e 1540 -c 0 -i 2 -a 0 -x {2.0 3.0 0 ------- null}
h -t 0.841265867924225 -s 1 -d 3 -p exp -e 1540 -c 0 -i 2 -a 0 -x {2.0 3.0 -1 ------- null}
+ -t 0.894865867924225 -s 2 -d 0 -p exp -e 1540 -c 0 -i 4 -a 0 -x {2.0 3.0 0 ---A--- null}
- -t 0.894865867924225 -s 2 -d 0 -p exp -e 1540 -c 0 -i 4 -a 0 -x {2.0 3.0 0 ---A--- null}
h -t 0.894865867924225 -s 2 -d 0 -p exp -e 1540 -c 0 -i 4 -a 0 -x {2.0 3.0 -1 ---A--- null}
r -t 0.964465867924225 -s 0 -d 1 -p exp -e 1540 -c 0 -i 3 -a 0 -x {2.0 3.0 0 ------- null}
+ -t 0.964465867924225 -s 1 -d 3 -p exp -e 1540 -c 0 -i 3 -a 0 -x {2.0 3.0 0 ------- null}
- -t 0.964465867924225 -s 1 -d 3 -p exp -e 1540 -c 0 -i 3 -a 0 -x {2.0 3.0 0 ------- null}
h -t 0.964465867924225 -s 1 -d 3 -p exp -e 1540 -c 0 -i 3 -a 0 -x {2.0 3.0 -1 ------- null}
r -t 0.979465867924225 -s 1 -d 3 -p exp -e 1540 -c 0 -i 2 -a 0 -x {2.0 3.0 0 ------- null}
+ -t 0.979465867924225 -s 3 -d 1 -p ack -e 40 -c 0 -i 5 -a 0 -x {3.0 2.0 1 ------- null}
- -t 0.979465867924225 -s 3 -d 1 -p ack -e 40 -c 0 -i 5 -a 0 -x {3.0 2.0 1 ------- null}
h -t 0.979465867924225 -s 3 -d 1 -p ack -e 40 -c 0 -i 5 -a 0 -x {3.0 2.0 -1 ------- null}
r -t 0.997665867924225 -s 3 -d 1 -p ack -e 40 -c 0 -i 5 -a 0 -x {3.0 2.0 1 ------- null}
+ -t 0.997665867924225 -s 1 -d 0 -p ack -e 40 -c 0 -i 5 -a 0 -x {3.0 2.0 1 ------- null}
- -t 0.997665867924225 -s 1 -d 0 -p ack -e 40 -c 0 -i 5 -a 0 -x {3.0 2.0 1 ------- null}
h -t 0.997665867924225 -s 1 -d 0 -p ack -e 40 -c 0 -i 5 -a 0 -x {3.0 2.0 -1 ------- null}
r -t 1.01586586792423 -s 1 -d 0 -p ack -e 40 -c 0 -i 5 -a 0 -x {3.0 2.0 1 ------- null}
+ -t 1.01586586792423 -s 0 -d 2 -p ack -e 40 -c 0 -i 5 -a 0 -x {3.0 2.0 1 ------- null}
- -t 1.01586586792423 -s 0 -d 2 -p ack -e 40 -c 0 -i 5 -a 0 -x {3.0 2.0 1 ------- null}
h -t 1.01586586792423 -s 0 -d 2 -p ack -e 40 -c 0 -i 5 -a 0 -x {3.0 2.0 -1 ------- null}
r -t 1.03306586792423 -s 2 -d 0 -p exp -e 1540 -c 0 -i 4 -a 0 -x {2.0 3.0 0 ---A--- null}
+ -t 1.03306586792423 -s 0 -d 1 -p exp -e 1540 -c 0 -i 4 -a 0 -x {2.0 3.0 0 ---A--- null}
- -t 1.03306586792423 -s 0 -d 1 -p exp -e 1540 -c 0 -i 4 -a 0 -x {2.0 3.0 0 ---A--- null}
h -t 1.03306586792423 -s 0 -d 1 -p exp -e 1540 -c 0 -i 4 -a 0 -x {2.0 3.0 -1 ---A--- null}
r -t 1.03406586792423 -s 0 -d 2 -p ack -e 40 -c 0 -i 5 -a 0 -x {3.0 2.0 1 ------- null}
+ -t 1.03406586792423 -s 2 -d 0 -p exp -e 1540 -c 0 -i 6 -a 0 -x {2.0 3.0 0 ------- null}
- -t 1.03406586792423 -s 2 -d 0 -p exp -e 1540 -c 0 -i 6 -a 0 -x {2.0 3.0 0 ------- null}
h -t 1.03406586792423 -s 2 -d 0 -p exp -e 1540 -c 0 -i 6 -a 0 -x {2.0 3.0 -1 ------- null}
+ -t 1.03406586792423 -s 2 -d 0 -p exp -e 1540 -c 0 -i 7 -a 0 -x {2.0 3.0 0 ------- null}
r -t 1.10266586792423 -s 1 -d 3 -p exp -e 1540 -c 0 -i 3 -a 0 -x {2.0 3.0 0 ------- null}
+ -t 1.10266586792423 -s 3 -d 1 -p ack -e 40 -c 0 -i 8 -a 0 -x {3.0 2.0 2 ------- null}
- -t 1.10266586792423 -s 3 -d 1 -p ack -e 40 -c 0 -i 8 -a 0 -x {3.0 2.0 2 ------- null}
h -t 1.10266586792423 -s 3 -d 1 -p ack -e 40 -c 0 -i 8 -a 0 -x {3.0 2.0 -1 ------- null}
r -t 1.12086586792423 -s 3 -d 1 -p ack -e 40 -c 0 -i 8 -a 0 -x {3.0 2.0 2 ------- null}
+ -t 1.12086586792423 -s 1 -d 0 -p ack -e 40 -c 0 -i 8 -a 0 -x {3.0 2.0 2 ------- null}
- -t 1.12086586792423 -s 1 -d 0 -p ack -e 40 -c 0 -i 8 -a 0 -x {3.0 2.0 2 ------- null}
h -t 1.12086586792423 -s 1 -d 0 -p ack -e 40 -c 0 -i 8 -a 0 -x {3.0 2.0 -1 ------- null}
r -t 1.13906586792423 -s 1 -d 0 -p ack -e 40 -c 0 -i 8 -a 0 -x {3.0 2.0 2 ------- null}
+ -t 1.13906586792423 -s 0 -d 2 -p ack -e 40 -c 0 -i 8 -a 0 -x {3.0 2.0 2 ------- null}
- -t 1.13906586792423 -s 0 -d 2 -p ack -e 40 -c 0 -i 8 -a 0 -x {3.0 2.0 2 ------- null}
h -t 1.13906586792423 -s 0 -d 2 -p ack -e 40 -c 0 -i 8 -a 0 -x {3.0 2.0 -1 ------- null}
- -t 1.15726586792423 -s 2 -d 0 -p exp -e 1540 -c 0 -i 7 -a 0 -x {2.0 3.0 0 ------- null}
h -t 1.15726586792423 -s 2 -d 0 -p exp -e 1540 -c 0 -i 7 -a 0 -x {2.0 3.0 -1 ------- null}
r -t 1.15726586792423 -s 0 -d 2 -p ack -e 40 -c 0 -i 8 -a 0 -x {3.0 2.0 2 ------- null}
r -t 1.17126586792423 -s 0 -d 1 -p exp -e 1540 -c 0 -i 4 -a 0 -x {2.0 3.0 0 ---A--- null}
+ -t 1.17126586792423 -s 1 -d 3 -p exp -e 1540 -c 0 -i 4 -a 0 -x {2.0 3.0 0 ---A--- null}
- -t 1.17126586792423 -s 1 -d 3 -p exp -e 1540 -c 0 -i 4 -a 0 -x {2.0 3.0 0 ---A--- null}
h -t 1.17126586792423 -s 1 -d 3 -p exp -e 1540 -c 0 -i 4 -a 0 -x {2.0 3.0 -1 ---A--- null}
r -t 1.17226586792423 -s 2 -d 0 -p exp -e 1540 -c 0 -i 6 -a 0 -x {2.0 3.0 0 ------- null}
+ -t 1.17226586792423 -s 0 -d 1 -p exp -e 1540 -c 0 -i 6 -a 0 -x {2.0 3.0 0 ------- null}
- -t 1.17226586792423 -s 0 -d 1 -p exp -e 1540 -c 0 -i 6 -a 0 -x {2.0 3.0 0 ------- null}
h -t 1.17226586792423 -s 0 -d 1 -p exp -e 1540 -c 0 -i 6 -a 0 -x {2.0 3.0 -1 ------- null}
r -t 1.29546586792423 -s 2 -d 0 -p exp -e 1540 -c 0 -i 7 -a 0 -x {2.0 3.0 0 ------- null}
+ -t 1.29546586792423 -s 0 -d 1 -p exp -e 1540 -c 0 -i 7 -a 0 -x {2.0 3.0 0 ------- null}
- -t 1.29546586792423 -s 0 -d 1 -p exp -e 1540 -c 0 -i 7 -a 0 -x {2.0 3.0 0 ------- null}
h -t 1.29546586792423 -s 0 -d 1 -p exp -e 1540 -c 0 -i 7 -a 0 -x {2.0 3.0 -1 ------- null}
r -t 1.30946586792423 -s 1 -d 3 -p exp -e 1540 -c 0 -i 4 -a 0 -x {2.0 3.0 0 ---A--- null}
+ -t 1.30946586792423 -s 3 -d 1 -p ack -e 40 -c 0 -i 9 -a 0 -x {3.0 2.0 2 ------- null}
- -t 1.30946586792423 -s 3 -d 1 -p ack -e 40 -c 0 -i 9 -a 0 -x {3.0 2.0 2 ------- null}
h -t 1.30946586792423 -s 3 -d 1 -p ack -e 40 -c 0 -i 9 -a 0 -x {3.0 2.0 -1 ------- null}
r -t 1.31046586792423 -s 0 -d 1 -p exp -e 1540 -c 0 -i 6 -a 0 -x {2.0 3.0 0 ------- null}
+ -t 1.31046586792423 -s 1 -d 3 -p exp -e 1540 -c 0 -i 6 -a 0 -x {2.0 3.0 0 ------- null}
- -t 1.31046586792423 -s 1 -d 3 -p exp -e 1540 -c 0 -i 6 -a 0 -x {2.0 3.0 0 ------- null}
h -t 1.31046586792423 -s 1 -d 3 -p exp -e 1540 -c 0 -i 6 -a 0 -x {2.0 3.0 -1 ------- null}
r -t 1.32766586792423 -s 3 -d 1 -p ack -e 40 -c 0 -i 9 -a 0 -x {3.0 2.0 2 ------- null}
+ -t 1.32766586792423 -s 1 -d 0 -p ack -e 40 -c 0 -i 9 -a 0 -x {3.0 2.0 2 ------- null}
- -t 1.32766586792423 -s 1 -d 0 -p ack -e 40 -c 0 -i 9 -a 0 -x {3.0 2.0 2 ------- null}
h -t 1.32766586792423 -s 1 -d 0 -p ack -e 40 -c 0 -i 9 -a 0 -x {3.0 2.0 -1 ------- null}
r -t 1.34586586792423 -s 1 -d 0 -p ack -e 40 -c 0 -i 9 -a 0 -x {3.0 2.0 2 ------- null}
+ -t 1.34586586792423 -s 0 -d 2 -p ack -e 40 -c 0 -i 9 -a 0 -x {3.0 2.0 2 ------- null}
- -t 1.34586586792423 -s 0 -d 2 -p ack -e 40 -c 0 -i 9 -a 0 -x {3.0 2.0 2 ------- null}
h -t 1.34586586792423 -s 0 -d 2 -p ack -e 40 -c 0 -i 9 -a 0 -x {3.0 2.0 -1 ------- null}
r -t 1.36406586792423 -s 0 -d 2 -p ack -e 40 -c 0 -i 9 -a 0 -x {3.0 2.0 2 ------- null}
r -t 1.43366586792423 -s 0 -d 1 -p exp -e 1540 -c 0 -i 7 -a 0 -x {2.0 3.0 0 ------- null}
+ -t 1.43366586792423 -s 1 -d 3 -p exp -e 1540 -c 0 -i 7 -a 0 -x {2.0 3.0 0 ------- null}
- -t 1.43366586792423 -s 1 -d 3 -p exp -e 1540 -c 0 -i 7 -a 0 -x {2.0 3.0 0 ------- null}
h -t 1.43366586792423 -s 1 -d 3 -p exp -e 1540 -c 0 -i 7 -a 0 -x {2.0 3.0 -1 ------- null}
r -t 1.44866586792423 -s 1 -d 3 -p exp -e 1540 -c 0 -i 6 -a 0 -x {2.0 3.0 0 ------- null}
+ -t 1.44866586792423 -s 3 -d 1 -p ack -e 40 -c 0 -i 10 -a 0 -x {3.0 2.0 2 ------- null}
- -t 1.44866586792423 -s 3 -d 1 -p ack -e 40 -c 0 -i 10 -a 0 -x {3.0 2.0 2 ------- null}
h -t 1.44866586792423 -s 3 -d 1 -p ack -e 40 -c 0 -i 10 -a 0 -x {3.0 2.0 -1 ------- null}
r -t 1.46686586792423 -s 3 -d 1 -p ack -e 40 -c 0 -i 10 -a 0 -x {3.0 2.0 2 ------- null}
+ -t 1.46686586792423 -s 1 -d 0 -p ack -e 40 -c 0 -i 10 -a 0 -x {3.0 2.0 2 ------- null}
- -t 1.46686586792423 -s 1 -d 0 -p ack -e 40 -c 0 -i 10 -a 0 -x {3.0 2.0 2 ------- null}
h -t 1.46686586792423 -s 1 -d 0 -p ack -e 40 -c 0 -i 10 -a 0 -x {3.0 2.0 -1 ------- null}
r -t 1.48506586792423 -s 1 -d 0 -p ack -e 40 -c 0 -i 10 -a 0 -x {3.0 2.0 2 ------- null}
+ -t 1.48506586792423 -s 0 -d 2 -p ack -e 40 -c 0 -i 10 -a 0 -x {3.0 2.0 2 ------- null}
- -t 1.48506586792423 -s 0 -d 2 -p ack -e 40 -c 0 -i 10 -a 0 -x {3.0 2.0 2 ------- null}
h -t 1.48506586792423 -s 0 -d 2 -p ack -e 40 -c 0 -i 10 -a 0 -x {3.0 2.0 -1 ------- null}
r -t 1.50326586792423 -s 0 -d 2 -p ack -e 40 -c 0 -i 10 -a 0 -x {3.0 2.0 2 ------- null}
+ -t 1.55296283967467 -s 4 -d 0 -p exp -e 40 -c 0 -i 11 -a 0 -x {4.0 5.0 0 ------- null}
- -t 1.55296283967467 -s 4 -d 0 -p exp -e 40 -c 0 -i 11 -a 0 -x {4.0 5.0 0 ------- null}
h -t 1.55296283967467 -s 4 -d 0 -p exp -e 40 -c 0 -i 11 -a 0 -x {4.0 5.0 -1 ------- null}
r -t 1.57116283967467 -s 4 -d 0 -p exp -e 40 -c 0 -i 11 -a 0 -x {4.0 5.0 0 ------- null}
+ -t 1.57116283967467 -s 0 -d 1 -p exp -e 40 -c 0 -i 11 -a 0 -x {4.0 5.0 0 ------- null}
- -t 1.57116283967467 -s 0 -d 1 -p exp -e 40 -c 0 -i 11 -a 0 -x {4.0 5.0 0 ------- null}
h -t 1.57116283967467 -s 0 -d 1 -p exp -e 40 -c 0 -i 11 -a 0 -x {4.0 5.0 -1 ------- null}
r -t 1.57186586792423 -s 1 -d 3 -p exp -e 1540 -c 0 -i 7 -a 0 -x {2.0 3.0 0 ------- null}
+ -t 1.57186586792423 -s 3 -d 1 -p ack -e 40 -c 0 -i 12 -a 0 -x {3.0 2.0 3 ------- null}
- -t 1.57186586792423 -s 3 -d 1 -p ack -e 40 -c 0 -i 12 -a 0 -x {3.0 2.0 3 ------- null}
h -t 1.57186586792423 -s 3 -d 1 -p ack -e 40 -c 0 -i 12 -a 0 -x {3.0 2.0 -1 ------- null}
r -t 1.58936283967467 -s 0 -d 1 -p exp -e 40 -c 0 -i 11 -a 0 -x {4.0 5.0 0 ------- null}
+ -t 1.58936283967467 -s 1 -d 5 -p exp -e 40 -c 0 -i 11 -a 0 -x {4.0 5.0 0 ------- null}
- -t 1.58936283967467 -s 1 -d 5 -p exp -e 40 -c 0 -i 11 -a 0 -x {4.0 5.0 0 ------- null}
h -t 1.58936283967467 -s 1 -d 5 -p exp -e 40 -c 0 -i 11 -a 0 -x {4.0 5.0 -1 ------- null}
r -t 1.59006586792423 -s 3 -d 1 -p ack -e 40 -c 0 -i 12 -a 0 -x {3.0 2.0 3 ------- null}
+ -t 1.59006586792423 -s 1 -d 0 -p ack -e 40 -c 0 -i 12 -a 0 -x {3.0 2.0 3 ------- null}
- -t 1.59006586792423 -s 1 -d 0 -p ack -e 40 -c 0 -i 12 -a 0 -x {3.0 2.0 3 ------- null}
h -t 1.59006586792423 -s 1 -d 0 -p ack -e 40 -c 0 -i 12 -a 0 -x {3.0 2.0 -1 ------- null}
r -t 1.60756283967467 -s 1 -d 5 -p exp -e 40 -c 0 -i 11 -a 0 -x {4.0 5.0 0 ------- null}
+ -t 1.60756283967467 -s 5 -d 1 -p ack -e 40 -c 0 -i 13 -a 0 -x {5.0 4.0 0 ------- null}
- -t 1.60756283967467 -s 5 -d 1 -p ack -e 40 -c 0 -i 13 -a 0 -x {5.0 4.0 0 ------- null}
h -t 1.60756283967467 -s 5 -d 1 -p ack -e 40 -c 0 -i 13 -a 0 -x {5.0 4.0 -1 ------- null}
r -t 1.60826586792423 -s 1 -d 0 -p ack -e 40 -c 0 -i 12 -a 0 -x {3.0 2.0 3 ------- null}
+ -t 1.60826586792423 -s 0 -d 2 -p ack -e 40 -c 0 -i 12 -a 0 -x {3.0 2.0 3 ------- null}
- -t 1.60826586792423 -s 0 -d 2 -p ack -e 40 -c 0 -i 12 -a 0 -x {3.0 2.0 3 ------- null}
h -t 1.60826586792423 -s 0 -d 2 -p ack -e 40 -c 0 -i 12 -a 0 -x {3.0 2.0 -1 ------- null}
r -t 1.62576283967467 -s 5 -d 1 -p ack -e 40 -c 0 -i 13 -a 0 -x {5.0 4.0 0 ------- null}
+ -t 1.62576283967467 -s 1 -d 0 -p ack -e 40 -c 0 -i 13 -a 0 -x {5.0 4.0 0 ------- null}
- -t 1.62576283967467 -s 1 -d 0 -p ack -e 40 -c 0 -i 13 -a 0 -x {5.0 4.0 0 ------- null}
h -t 1.62576283967467 -s 1 -d 0 -p ack -e 40 -c 0 -i 13 -a 0 -x {5.0 4.0 -1 ------- null}
r -t 1.62646586792423 -s 0 -d 2 -p ack -e 40 -c 0 -i 12 -a 0 -x {3.0 2.0 3 ------- null}
r -t 1.64396283967467 -s 1 -d 0 -p ack -e 40 -c 0 -i 13 -a 0 -x {5.0 4.0 0 ------- null}
+ -t 1.64396283967467 -s 0 -d 4 -p ack -e 40 -c 0 -i 13 -a 0 -x {5.0 4.0 0 ------- null}
- -t 1.64396283967467 -s 0 -d 4 -p ack -e 40 -c 0 -i 13 -a 0 -x {5.0 4.0 0 ------- null}
h -t 1.64396283967467 -s 0 -d 4 -p ack -e 40 -c 0 -i 13 -a 0 -x {5.0 4.0 -1 ------- null}
r -t 1.66216283967467 -s 0 -d 4 -p ack -e 40 -c 0 -i 13 -a 0 -x {5.0 4.0 0 ------- null}
+ -t 1.66216283967467 -s 4 -d 0 -p exp -e 1540 -c 0 -i 14 -a 0 -x {4.0 5.0 0 ------- null}
- -t 1.66216283967467 -s 4 -d 0 -p exp -e 1540 -c 0 -i 14 -a 0 -x {4.0 5.0 0 ------- null}
h -t 1.66216283967467 -s 4 -d 0 -p exp -e 1540 -c 0 -i 14 -a 0 -x {4.0 5.0 -1 ------- null}
+ -t 1.66216283967467 -s 4 -d 0 -p exp -e 1540 -c 0 -i 15 -a 0 -x {4.0 5.0 0 ------- null}
+ -t 1.71590807321695 -s 2 -d 0 -p exp -e 1540 -c 0 -i 16 -a 0 -x {2.0 3.0 0 ------- null}
- -t 1.71590807321695 -s 2 -d 0 -p exp -e 1540 -c 0 -i 16 -a 0 -x {2.0 3.0 0 ------- null}
h -t 1.71590807321695 -s 2 -d 0 -p exp -e 1540 -c 0 -i 16 -a 0 -x {2.0 3.0 -1 ------- null}
+ -t 1.74215807321695 -s 2 -d 0 -p exp -e 1540 -c 0 -i 17 -a 0 -x {2.0 3.0 0 ------- null}
- -t 1.78536283967467 -s 4 -d 0 -p exp -e 1540 -c 0 -i 15 -a 0 -x {4.0 5.0 0 ------- null}
h -t 1.78536283967467 -s 4 -d 0 -p exp -e 1540 -c 0 -i 15 -a 0 -x {4.0 5.0 -1 ------- null}
r -t 1.80036283967467 -s 4 -d 0 -p exp -e 1540 -c 0 -i 14 -a 0 -x {4.0 5.0 0 ------- null}
+ -t 1.80036283967467 -s 0 -d 1 -p exp -e 1540 -c 0 -i 14 -a 0 -x {4.0 5.0 0 ------- null}
- -t 1.80036283967467 -s 0 -d 1 -p exp -e 1540 -c 0 -i 14 -a 0 -x {4.0 5.0 0 ------- null}
h -t 1.80036283967467 -s 0 -d 1 -p exp -e 1540 -c 0 -i 14 -a 0 -x {4.0 5.0 -1 ------- null}
- -t 1.83910807321695 -s 2 -d 0 -p exp -e 1540 -c 0 -i 17 -a 0 -x {2.0 3.0 0 ------- null}
h -t 1.83910807321695 -s 2 -d 0 -p exp -e 1540 -c 0 -i 17 -a 0 -x {2.0 3.0 -1 ------- null}
r -t 1.85410807321695 -s 2 -d 0 -p exp -e 1540 -c 0 -i 16 -a 0 -x {2.0 3.0 0 ------- null}
+ -t 1.85410807321695 -s 0 -d 1 -p exp -e 1540 -c 0 -i 16 -a 0 -x {2.0 3.0 0 ------- null}
- -t 1.92356283967467 -s 0 -d 1 -p exp -e 1540 -c 0 -i 16 -a 0 -x {2.0 3.0 0 ------- null}
h -t 1.92356283967467 -s 0 -d 1 -p exp -e 1540 -c 0 -i 16 -a 0 -x {2.0 3.0 -1 ------- null}
r -t 1.92356283967467 -s 4 -d 0 -p exp -e 1540 -c 0 -i 15 -a 0 -x {4.0 5.0 0 ------- null}
+ -t 1.92356283967467 -s 0 -d 1 -p exp -e 1540 -c 0 -i 15 -a 0 -x {4.0 5.0 0 ------- null}
r -t 1.93856283967467 -s 0 -d 1 -p exp -e 1540 -c 0 -i 14 -a 0 -x {4.0 5.0 0 ------- null}
+ -t 1.93856283967467 -s 1 -d 5 -p exp -e 1540 -c 0 -i 14 -a 0 -x {4.0 5.0 0 ------- null}
- -t 1.93856283967467 -s 1 -d 5 -p exp -e 1540 -c 0 -i 14 -a 0 -x {4.0 5.0 0 ------- null}
h -t 1.93856283967467 -s 1 -d 5 -p exp -e 1540 -c 0 -i 14 -a 0 -x {4.0 5.0 -1 ------- null}
r -t 1.97730807321695 -s 2 -d 0 -p exp -e 1540 -c 0 -i 17 -a 0 -x {2.0 3.0 0 ------- null}
+ -t 1.97730807321695 -s 0 -d 1 -p exp -e 1540 -c 0 -i 17 -a 0 -x {2.0 3.0 0 ------- null}
+ -t 1.99216283967467 -s 4 -d 0 -p exp -e 1540 -c 0 -i 18 -a 0 -x {4.0 5.0 0 ---A--- null}
- -t 1.99216283967467 -s 4 -d 0 -p exp -e 1540 -c 0 -i 18 -a 0 -x {4.0 5.0 0 ---A--- null}
h -t 1.99216283967467 -s 4 -d 0 -p exp -e 1540 -c 0 -i 18 -a 0 -x {4.0 5.0 -1 ---A--- null}
- -t 2.04676283967467 -s 0 -d 1 -p exp -e 1540 -c 0 -i 15 -a 0 -x {4.0 5.0 0 ------- null}
h -t 2.04676283967467 -s 0 -d 1 -p exp -e 1540 -c 0 -i 15 -a 0 -x {4.0 5.0 -1 ------- null}
r -t 2.06176283967467 -s 0 -d 1 -p exp -e 1540 -c 0 -i 16 -a 0 -x {2.0 3.0 0 ------- null}
+ -t 2.06176283967467 -s 1 -d 3 -p exp -e 1540 -c 0 -i 16 -a 0 -x {2.0 3.0 0 ------- null}
- -t 2.06176283967467 -s 1 -d 3 -p exp -e 1540 -c 0 -i 16 -a 0 -x {2.0 3.0 0 ------- null}
h -t 2.06176283967467 -s 1 -d 3 -p exp -e 1540 -c 0 -i 16 -a 0 -x {2.0 3.0 -1 ------- null}
r -t 2.07676283967467 -s 1 -d 5 -p exp -e 1540 -c 0 -i 14 -a 0 -x {4.0 5.0 0 ------- null}
+ -t 2.07676283967467 -s 5 -d 1 -p ack -e 40 -c 0 -i 19 -a 0 -x {5.0 4.0 1 ------- null}
- -t 2.07676283967467 -s 5 -d 1 -p ack -e 40 -c 0 -i 19 -a 0 -x {5.0 4.0 1 ------- null}
h -t 2.07676283967467 -s 5 -d 1 -p ack -e 40 -c 0 -i 19 -a 0 -x {5.0 4.0 -1 ------- null}
r -t 2.09496283967467 -s 5 -d 1 -p ack -e 40 -c 0 -i 19 -a 0 -x {5.0 4.0 1 ------- null}
+ -t 2.09496283967467 -s 1 -d 0 -p ack -e 40 -c 0 -i 19 -a 0 -x {5.0 4.0 1 ------- null}
- -t 2.09496283967467 -s 1 -d 0 -p ack -e 40 -c 0 -i 19 -a 0 -x {5.0 4.0 1 ------- null}
h -t 2.09496283967467 -s 1 -d 0 -p ack -e 40 -c 0 -i 19 -a 0 -x {5.0 4.0 -1 ------- null}
r -t 2.11316283967467 -s 1 -d 0 -p ack -e 40 -c 0 -i 19 -a 0 -x {5.0 4.0 1 ------- null}
+ -t 2.11316283967467 -s 0 -d 4 -p ack -e 40 -c 0 -i 19 -a 0 -x {5.0 4.0 1 ------- null}
- -t 2.11316283967467 -s 0 -d 4 -p ack -e 40 -c 0 -i 19 -a 0 -x {5.0 4.0 1 ------- null}
h -t 2.11316283967467 -s 0 -d 4 -p ack -e 40 -c 0 -i 19 -a 0 -x {5.0 4.0 -1 ------- null}
r -t 2.13036283967467 -s 4 -d 0 -p exp -e 1540 -c 0 -i 18 -a 0 -x {4.0 5.0 0 ---A--- null}
+ -t 2.13036283967467 -s 0 -d 1 -p exp -e 1540 -c 0 -i 18 -a 0 -x {4.0 5.0 0 ---A--- null}
r -t 2.13136283967467 -s 0 -d 4 -p ack -e 40 -c 0 -i 19 -a 0 -x {5.0 4.0 1 ------- null}
+ -t 2.13136283967467 -s 4 -d 0 -p exp -e 1540 -c 0 -i 20 -a 0 -x {4.0 5.0 0 ------- null}
- -t 2.13136283967467 -s 4 -d 0 -p exp -e 1540 -c 0 -i 20 -a 0 -x {4.0 5.0 0 ------- null}
h -t 2.13136283967467 -s 4 -d 0 -p exp -e 1540 -c 0 -i 20 -a 0 -x {4.0 5.0 -1 ------- null}
+ -t 2.13136283967467 -s 4 -d 0 -p exp -e 1540 -c 0 -i 21 -a 0 -x {4.0 5.0 0 ------- null}
- -t 2.16996283967467 -s 0 -d 1 -p exp -e 1540 -c 0 -i 17 -a 0 -x {2.0 3.0 0 ------- null}
h -t 2.16996283967467 -s 0 -d 1 -p exp -e 1540 -c 0 -i 17 -a 0 -x {2.0 3.0 -1 ------- null}
r -t 2.18496283967467 -s 0 -d 1 -p exp -e 1540 -c 0 -i 15 -a 0 -x {4.0 5.0 0 ------- null}
+ -t 2.18496283967467 -s 1 -d 5 -p exp -e 1540 -c 0 -i 15 -a 0 -x {4.0 5.0 0 ------- null}
- -t 2.18496283967467 -s 1 -d 5 -p exp -e 1540 -c 0 -i 15 -a 0 -x {4.0 5.0 0 ------- null}
h -t 2.18496283967467 -s 1 -d 5 -p exp -e 1540 -c 0 -i 15 -a 0 -x {4.0 5.0 -1 ------- null}
r -t 2.19996283967467 -s 1 -d 3 -p exp -e 1540 -c 0 -i 16 -a 0 -x {2.0 3.0 0 ------- null}
+ -t 2.19996283967467 -s 3 -d 1 -p ack -e 40 -c 0 -i 22 -a 0 -x {3.0 2.0 4 ------- null}
- -t 2.19996283967467 -s 3 -d 1 -p ack -e 40 -c 0 -i 22 -a 0 -x {3.0 2.0 4 ------- null}
h -t 2.19996283967467 -s 3 -d 1 -p ack -e 40 -c 0 -i 22 -a 0 -x {3.0 2.0 -1 ------- null}
r -t 2.21816283967467 -s 3 -d 1 -p ack -e 40 -c 0 -i 22 -a 0 -x {3.0 2.0 4 ------- null}
+ -t 2.21816283967467 -s 1 -d 0 -p ack -e 40 -c 0 -i 22 -a 0 -x {3.0 2.0 4 ------- null}
- -t 2.21816283967467 -s 1 -d 0 -p ack -e 40 -c 0 -i 22 -a 0 -x {3.0 2.0 4 ------- null}
h -t 2.21816283967467 -s 1 -d 0 -p ack -e 40 -c 0 -i 22 -a 0 -x {3.0 2.0 -1 ------- null}
r -t 2.23636283967467 -s 1 -d 0 -p ack -e 40 -c 0 -i 22 -a 0 -x {3.0 2.0 4 ------- null}
+ -t 2.23636283967467 -s 0 -d 2 -p ack -e 40 -c 0 -i 22 -a 0 -x {3.0 2.0 4 ------- null}
- -t 2.23636283967467 -s 0 -d 2 -p ack -e 40 -c 0 -i 22 -a 0 -x {3.0 2.0 4 ------- null}
h -t 2.23636283967467 -s 0 -d 2 -p ack -e 40 -c 0 -i 22 -a 0 -x {3.0 2.0 -1 ------- null}
- -t 2.25456283967467 -s 4 -d 0 -p exp -e 1540 -c 0 -i 21 -a 0 -x {4.0 5.0 0 ------- null}
h -t 2.25456283967467 -s 4 -d 0 -p exp -e 1540 -c 0 -i 21 -a 0 -x {4.0 5.0 -1 ------- null}
r -t 2.25456283967467 -s 0 -d 2 -p ack -e 40 -c 0 -i 22 -a 0 -x {3.0 2.0 4 ------- null}
+ -t 2.25456283967467 -s 2 -d 0 -p exp -e 1540 -c 0 -i 23 -a 0 -x {2.0 3.0 0 ------- null}
- -t 2.25456283967467 -s 2 -d 0 -p exp -e 1540 -c 0 -i 23 -a 0 -x {2.0 3.0 0 ------- null}
h -t 2.25456283967467 -s 2 -d 0 -p exp -e 1540 -c 0 -i 23 -a 0 -x {2.0 3.0 -1 ------- null}
+ -t 2.25456283967467 -s 2 -d 0 -p exp -e 1540 -c 0 -i 24 -a 0 -x {2.0 3.0 0 ------- null}
r -t 2.26956283967467 -s 4 -d 0 -p exp -e 1540 -c 0 -i 20 -a 0 -x {4.0 5.0 0 ------- null}
+ -t 2.26956283967467 -s 0 -d 1 -p exp -e 1540 -c 0 -i 20 -a 0 -x {4.0 5.0 0 ------- null}
- -t 2.29316283967467 -s 0 -d 1 -p exp -e 1540 -c 0 -i 18 -a 0 -x {4.0 5.0 0 ---A--- null}
h -t 2.29316283967467 -s 0 -d 1 -p exp -e 1540 -c 0 -i 18 -a 0 -x {4.0 5.0 -1 ---A--- null}
r -t 2.30816283967467 -s 0 -d 1 -p exp -e 1540 -c 0 -i 17 -a 0 -x {2.0 3.0 0 ------- null}
+ -t 2.30816283967467 -s 1 -d 3 -p exp -e 1540 -c 0 -i 17 -a 0 -x {2.0 3.0 0 ------- null}
- -t 2.30816283967467 -s 1 -d 3 -p exp -e 1540 -c 0 -i 17 -a 0 -x {2.0 3.0 0 ------- null}
h -t 2.30816283967467 -s 1 -d 3 -p exp -e 1540 -c 0 -i 17 -a 0 -x {2.0 3.0 -1 ------- null}
r -t 2.32316283967467 -s 1 -d 5 -p exp -e 1540 -c 0 -i 15 -a 0 -x {4.0 5.0 0 ------- null}
+ -t 2.32316283967467 -s 5 -d 1 -p ack -e 40 -c 0 -i 25 -a 0 -x {5.0 4.0 2 ------- null}
- -t 2.32316283967467 -s 5 -d 1 -p ack -e 40 -c 0 -i 25 -a 0 -x {5.0 4.0 2 ------- null}
h -t 2.32316283967467 -s 5 -d 1 -p ack -e 40 -c 0 -i 25 -a 0 -x {5.0 4.0 -1 ------- null}
r -t 2.34136283967467 -s 5 -d 1 -p ack -e 40 -c 0 -i 25 -a 0 -x {5.0 4.0 2 ------- null}
+ -t 2.34136283967467 -s 1 -d 0 -p ack -e 40 -c 0 -i 25 -a 0 -x {5.0 4.0 2 ------- null}
- -t 2.34136283967467 -s 1 -d 0 -p ack -e 40 -c 0 -i 25 -a 0 -x {5.0 4.0 2 ------- null}
h -t 2.34136283967467 -s 1 -d 0 -p ack -e 40 -c 0 -i 25 -a 0 -x {5.0 4.0 -1 ------- null}
r -t 2.35956283967467 -s 1 -d 0 -p ack -e 40 -c 0 -i 25 -a 0 -x {5.0 4.0 2 ------- null}
+ -t 2.35956283967467 -s 0 -d 4 -p ack -e 40 -c 0 -i 25 -a 0 -x {5.0 4.0 2 ------- null}
- -t 2.35956283967467 -s 0 -d 4 -p ack -e 40 -c 0 -i 25 -a 0 -x {5.0 4.0 2 ------- null}
h -t 2.35956283967467 -s 0 -d 4 -p ack -e 40 -c 0 -i 25 -a 0 -x {5.0 4.0 -1 ------- null}
r -t 2.37776283967467 -s 0 -d 4 -p ack -e 40 -c 0 -i 25 -a 0 -x {5.0 4.0 2 ------- null}
+ -t 2.37776283967467 -s 4 -d 0 -p exp -e 1540 -c 0 -i 26 -a 0 -x {4.0 5.0 0 ------- null}
- -t 2.37776283967467 -s 4 -d 0 -p exp -e 1540 -c 0 -i 26 -a 0 -x {4.0 5.0 0 ------- null}
h -t 2.37776283967467 -s 4 -d 0 -p exp -e 1540 -c 0 -i 26 -a 0 -x {4.0 5.0 -1 ------- null}
- -t 2.37776283967467 -s 2 -d 0 -p exp -e 1540 -c 0 -i 24 -a 0 -x {2.0 3.0 0 ------- null}
h -t 2.37776283967467 -s 2 -d 0 -p exp -e 1540 -c 0 -i 24 -a 0 -x {2.0 3.0 -1 ------- null}
r -t 2.39276283967467 -s 4 -d 0 -p exp -e 1540 -c 0 -i 21 -a 0 -x {4.0 5.0 0 ------- null}
+ -t 2.39276283967467 -s 0 -d 1 -p exp -e 1540 -c 0 -i 21 -a 0 -x {4.0 5.0 0 ------- null}
r -t 2.39276283967467 -s 2 -d 0 -p exp -e 1540 -c 0 -i 23 -a 0 -x {2.0 3.0 0 ------- null}
+ -t 2.39276283967467 -s 0 -d 1 -p exp -e 1540 -c 0 -i 23 -a 0 -x {2.0 3.0 0 ------- null}
+ -t 2.40791044262846 -s 6 -d 0 -p exp -e 40 -c 0 -i 27 -a 0 -x {6.0 7.0 0 ------- null}
- -t 2.40791044262846 -s 6 -d 0 -p exp -e 40 -c 0 -i 27 -a 0 -x {6.0 7.0 0 ------- null}
h -t 2.40791044262846 -s 6 -d 0 -p exp -e 40 -c 0 -i 27 -a 0 -x {6.0 7.0 -1 ------- null}
- -t 2.41636283967467 -s 0 -d 1 -p exp -e 1540 -c 0 -i 20 -a 0 -x {4.0 5.0 0 ------- null}
h -t 2.41636283967467 -s 0 -d 1 -p exp -e 1540 -c 0 -i 20 -a 0 -x {4.0 5.0 -1 ------- null}
r -t 2.42611044262846 -s 6 -d 0 -p exp -e 40 -c 0 -i 27 -a 0 -x {6.0 7.0 0 ------- null}
+ -t 2.42611044262846 -s 0 -d 1 -p exp -e 40 -c 0 -i 27 -a 0 -x {6.0 7.0 0 ------- null}
r -t 2.43136283967467 -s 0 -d 1 -p exp -e 1540 -c 0 -i 18 -a 0 -x {4.0 5.0 0 ---A--- null}
+ -t 2.43136283967467 -s 1 -d 5 -p exp -e 1540 -c 0 -i 18 -a 0 -x {4.0 5.0 0 ---A--- null}
- -t 2.43136283967467 -s 1 -d 5 -p exp -e 1540 -c 0 -i 18 -a 0 -x {4.0 5.0 0 ---A--- null}
h -t 2.43136283967467 -s 1 -d 5 -p exp -e 1540 -c 0 -i 18 -a 0 -x {4.0 5.0 -1 ---A--- null}
r -t 2.44636283967467 -s 1 -d 3 -p exp -e 1540 -c 0 -i 17 -a 0 -x {2.0 3.0 0 ------- null}
+ -t 2.44636283967467 -s 3 -d 1 -p ack -e 40 -c 0 -i 28 -a 0 -x {3.0 2.0 5 ------- null}
- -t 2.44636283967467 -s 3 -d 1 -p ack -e 40 -c 0 -i 28 -a 0 -x {3.0 2.0 5 ------- null}
h -t 2.44636283967467 -s 3 -d 1 -p ack -e 40 -c 0 -i 28 -a 0 -x {3.0 2.0 -1 ------- null}
r -t 2.46456283967467 -s 3 -d 1 -p ack -e 40 -c 0 -i 28 -a 0 -x {3.0 2.0 5 ------- null}
+ -t 2.46456283967467 -s 1 -d 0 -p ack -e 40 -c 0 -i 28 -a 0 -x {3.0 2.0 5 ------- null}
- -t 2.46456283967467 -s 1 -d 0 -p ack -e 40 -c 0 -i 28 -a 0 -x {3.0 2.0 5 ------- null}
h -t 2.46456283967467 -s 1 -d 0 -p ack -e 40 -c 0 -i 28 -a 0 -x {3.0 2.0 -1 ------- null}
r -t 2.48276283967467 -s 1 -d 0 -p ack -e 40 -c 0 -i 28 -a 0 -x {3.0 2.0 5 ------- null}
+ -t 2.48276283967467 -s 0 -d 2 -p ack -e 40 -c 0 -i 28 -a 0 -x {3.0 2.0 5 ------- null}
- -t 2.48276283967467 -s 0 -d 2 -p ack -e 40 -c 0 -i 28 -a 0 -x {3.0 2.0 5 ------- null}
h -t 2.48276283967467 -s 0 -d 2 -p ack -e 40 -c 0 -i 28 -a 0 -x {3.0 2.0 -1 ------- null}
r -t 2.50096283967467 -s 0 -d 2 -p ack -e 40 -c 0 -i 28 -a 0 -x {3.0 2.0 5 ------- null}
+ -t 2.50096283967467 -s 2 -d 0 -p exp -e 1540 -c 0 -i 29 -a 0 -x {2.0 3.0 0 ------- null}
- -t 2.50096283967468 -s 2 -d 0 -p exp -e 1540 -c 0 -i 29 -a 0 -x {2.0 3.0 0 ------- null}
h -t 2.50096283967468 -s 2 -d 0 -p exp -e 1540 -c 0 -i 29 -a 0 -x {2.0 3.0 -1 ------- null}
r -t 2.51596283967467 -s 4 -d 0 -p exp -e 1540 -c 0 -i 26 -a 0 -x {4.0 5.0 0 ------- null}
+ -t 2.51596283967467 -s 0 -d 1 -p exp -e 1540 -c 0 -i 26 -a 0 -x {4.0 5.0 0 ------- null}
r -t 2.51596283967467 -s 2 -d 0 -p exp -e 1540 -c 0 -i 24 -a 0 -x {2.0 3.0 0 ------- null}